<?xml version="1.0"?>
<VTKFile type="UnstructuredGrid"  version="0.1"  >
<UnstructuredGrid>
<Piece  NumberOfPoints="14005" NumberOfCells="27628">
<Points>
<DataArray  type="Float64"  NumberOfComponents="3"  format="ascii">3.325878449210181 2.222280932078409 0  2.222280932078409 3.32587844921018 0  1.944495815568608 2.910143643058908 0  2.910143643058908 1.944495815568608 0  -2.222280932078409 3.325878449210181 0  -3.32587844921018 2.222280932078409 0  -2.910143643058908 1.944495815568608 0  -1.944495815568607 2.910143643058908 0  -3.325878449210181 -2.222280932078408 0  -2.22228093207841 -3.32587844921018 0  -1.944495815568609 -2.910143643058908 0  -2.910143643058909 -1.944495815568607 0  2.222280932078408 -3.325878449210181 0  3.32587844921018 -2.22228093207841 0  2.910143643058908 -1.944495815568609 0  1.944495815568607 -2.910143643058909 0  6 0 0  3.673940397442059e-16 6 0  -1.102182119232618e-15 -6 0  -6 7.347880794884119e-16 0  3.270339252606336 2.30323276567138 0  3.212830125922581 2.382797217969732 0  3.153385710506425 2.460926362322507 0  3.092041813450948 2.537573136654581 0  3.028835386025939 2.612691371815106 0  2.963804501419836 2.686235819388074 0  2.896988331805868 2.758162178948267 0  2.828427124746191 2.82842712474619 0  2.758162178948269 2.896988331805867 0  2.686235819388075 2.963804501419835 0  2.612691371815108 3.028835386025937 0  2.537573136654581 3.092041813450948 0  2.460926362322506 3.153385710506426 0  2.382797217969733 3.21283012592258 0  2.303232765671381 3.270339252606335 0  2.166723908776449 3.242731487979926 0  2.111166885474489 3.159584526749672 0  2.055609862172529 3.076437565519417 0  2.000052838870568 2.993290604289163 0  2.025349536629318 2.854463041357412 0  2.10460981954442 2.796536698753872 0  2.182214306505567 2.736410188638104 0  2.258101942397305 2.674130815375627 0  2.332213022832014 2.609747577091079 0  2.404489241122155 2.543311127119095 0  2.474873734152916 2.474873734152917 0  2.543311127119094 2.404489241122157 0  2.60974757709108 2.332213022832013 0  2.674130815375626 2.258101942397307 0  2.736410188638104 2.182214306505568 0  2.796536698753871 2.104609819544422 0  2.854463041357411 2.025349536629319 0  2.993290604289163 2.000052838870568 0  3.076437565519417 2.055609862172528 0  3.159584526749672 2.111166885474488 0  3.242731487979926 2.166723908776448 0  -2.30323276567138 3.270339252606336 0  -2.382797217969731 3.212830125922581 0  -2.460926362322505 3.153385710506427 0  -2.537573136654579 3.09204181345095 0  -2.612691371815107 3.028835386025938 0  -2.686235819388073 2.963804501419837 0  -2.758162178948267 2.896988331805868 0  -2.82842712474619 2.828427124746191 0  -2.896988331805867 2.758162178948269 0  -2.963804501419835 2.686235819388075 0  -3.028835386025937 2.612691371815108 0  -3.092041813450948 2.537573136654581 0  -3.153385710506426 2.460926362322506 0  -3.21283012592258 2.382797217969733 0  -3.270339252606335 2.303232765671381 0  -3.242731487979926 2.166723908776449 0  -3.159584526749672 2.111166885474489 0  -3.076437565519417 2.055609862172529 0  -2.993290604289163 2.000052838870568 0  -2.854463041357411 2.025349536629319 0  -2.796536698753871 2.10460981954442 0  -2.736410188638104 2.182214306505567 0  -2.674130815375626 2.258101942397307 0  -2.60974757709108 2.332213022832013 0  -2.543311127119094 2.404489241122156 0  -2.474873734152916 2.474873734152917 0  -2.404489241122155 2.543311127119095 0  -2.332213022832013 2.60974757709108 0  -2.258101942397307 2.674130815375626 0  -2.182214306505568 2.736410188638104 0  -2.104609819544419 2.796536698753873 0  -2.025349536629319 2.854463041357411 0  -2.000052838870568 2.993290604289163 0  -2.055609862172528 3.076437565519417 0  -2.111166885474488 3.159584526749672 0  -2.166723908776448 3.242731487979927 0  -3.270339252606335 -2.30323276567138 0  -3.21283012592258 -2.382797217969733 0  -3.153385710506426 -2.460926362322506 0  -3.092041813450948 -2.537573136654581 0  -3.028835386025939 -2.612691371815106 0  -2.963804501419838 -2.686235819388072 0  -2.896988331805868 -2.758162178948266 0  -2.828427124746192 -2.828427124746189 0  -2.758162178948269 -2.896988331805866 0  -2.686235819388075 -2.963804501419835 0  -2.612691371815108 -3.028835386025937 0  -2.537573136654583 -3.092041813450948 0  -2.460926362322508 -3.153385710506424 0  -2.382797217969733 -3.21283012592258 0  -2.303232765671381 -3.270339252606335 0  -2.166723908776449 -3.242731487979925 0  -2.111166885474489 -3.159584526749671 0  -2.055609862172529 -3.076437565519416 0  -2.000052838870569 -2.993290604289162 0  -2.025349536629319 -2.854463041357412 0  -2.104609819544419 -2.796536698753872 0  -2.182214306505565 -2.736410188638105 0  -2.258101942397306 -2.674130815375627 0  -2.332213022832012 -2.609747577091081 0  -2.404489241122155 -2.543311127119096 0  -2.474873734152916 -2.474873734152916 0  -2.543311127119094 -2.404489241122156 0  -2.609747577091079 -2.332213022832014 0  -2.674130815375626 -2.258101942397306 0  -2.736410188638104 -2.182214306505568 0  -2.796536698753872 -2.10460981954442 0  -2.854463041357411 -2.02534953662932 0  -2.993290604289164 -2.000052838870567 0  -3.076437565519418 -2.055609862172528 0  -3.159584526749672 -2.111166885474488 0  -3.242731487979927 -2.166723908776448 0  2.30323276567138 -3.270339252606336 0  2.382797217969732 -3.212830125922581 0  2.460926362322507 -3.153385710506425 0  2.537573136654581 -3.092041813450948 0  2.612691371815106 -3.028835386025939 0  2.686235819388074 -2.963804501419836 0  2.758162178948267 -2.896988331805868 0  2.82842712474619 -2.82842712474619 0  2.896988331805868 -2.758162178948268 0  2.963804501419836 -2.686235819388074 0  3.028835386025939 -2.612691371815107 0  3.092041813450948 -2.537573136654582 0  3.153385710506425 -2.460926362322508 0  3.21283012592258 -2.382797217969733 0  3.270339252606335 -2.30323276567138 0  3.242731487979925 -2.166723908776449 0  3.159584526749671 -2.111166885474489 0  3.076437565519416 -2.055609862172529 0  2.993290604289162 -2.000052838870569 0  2.854463041357411 -2.025349536629319 0  2.796536698753872 -2.104609819544419 0  2.736410188638105 -2.182214306505566 0  2.674130815375627 -2.258101942397305 0  2.609747577091081 -2.332213022832013 0  2.543311127119096 -2.404489241122155 0  2.474873734152918 -2.474873734152915 0  2.404489241122158 -2.543311127119093 0  2.332213022832015 -2.609747577091079 0  2.258101942397308 -2.674130815375625 0  2.182214306505568 -2.736410188638104 0  2.104609819544421 -2.796536698753871 0  2.02534953662932 -2.854463041357411 0  2.000052838870567 -2.993290604289164 0  2.055609862172528 -3.076437565519418 0  2.111166885474488 -3.159584526749672 0  2.166723908776448 -3.242731487979927 0  5.999179829954814 0.0992036685981503 0  5.996719544045556 0.1983802159038491 0  5.992619814889829 0.2975025280393312 0  5.986881763312647 0.3965435059541944 0  5.97950695804002 0.495476072833992 0  5.970497415270069 0.5942731815027745 0  5.95985559812183 0.6929078218175151 0  5.947584415961851 0.7913530280524123 0  5.933687223608811 0.8895818862710482 0  5.918167820416334 0.9875675416844002 0  5.901030449234295 1.085283205992656 0  5.882279795248857 1.182702164708879 0  5.861920984701596 1.279797784462479 0  5.839959583488035 1.376543520280507 0  5.816401595635984 1.472912922844791 0  5.791253461664093 1.568879645722915 0  5.76452205682109 1.664417452571064 0  5.736214689206147 1.759500224306785 0  5.706339097770924 1.854101966249679 0  5.67490345020381 1.948196815228096 0  5.641916340696969 2.041759046649853 0  5.607386787596767 2.134763081535094 0  5.571324230938244 2.22718349350932 0  5.53373852986431 2.318995015754709 0  5.494639959930346 2.410172547917813 0  5.454039210294976 2.500691162971739 0  5.411947380797756 2.590526114030954 0  5.368375978924584 2.679652841116834 0  5.323336916661674 2.768046977872121 0  5.276842507238937 2.855684358222436 0  5.228905461763667 2.942541022983042 0  5.179538885745447 3.028593226409055 0  5.128756275513238 3.113817442687285 0  5.076571514525616 3.198190372367956 0  5.022998869575176 3.281688948734556 0  4.968052986888125 3.364290344110029 0  4.91174888812016 3.445971976097655 0  4.854101966249689 3.526711513754831 0  4.795127981369555 3.606486883698142 0  4.734843056378368 3.685276276137998 0  4.673263672572681 3.763058150841213 0  4.610406665141161 3.839811243019891 0  4.546289218562016 3.915514569145002 0  4.480928861904932 3.99014743268308 0  4.414343464038798 4.063689429754437 0  4.346551228746542 4.136120454711387 0  4.277570689748392 4.207420705634922 0  4.207420705634942 4.277570689748372 0  4.136120454711405 4.346551228746524 0  4.063689429754456 4.41434346403878 0  3.990147432683101 4.480928861904912 0  3.915514569145022 4.546289218561999 0  3.839811243019909 4.610406665141145 0  3.763058150841232 4.673263672572666 0  3.685276276138017 4.734843056378354 0  3.60648688369816 4.795127981369541 0  3.526711513754853 4.854101966249674 0  3.445971976097676 4.911748888120145 0  3.36429034411005 4.968052986888111 0  3.281688948734575 5.022998869575162 0  3.198190372367976 5.076571514525604 0  3.113817442687305 5.128756275513226 0  3.028593226409076 5.179538885745435 0  2.942541022983062 5.228905461763656 0  2.855684358222454 5.276842507238927 0  2.76804697787214 5.323336916661664 0  2.679652841116852 5.368375978924575 0  2.59052611403097 5.411947380797749 0  2.500691162971755 5.454039210294969 0  2.410172547917824 5.494639959930342 0  2.31899501575472 5.533738529864305 0  2.227183493509331 5.57132423093824 0  2.134763081535105 5.607386787596763 0  2.041759046649864 5.641916340696966 0  1.948196815228107 5.674903450203805 0  1.85410196624969 5.706339097770919 0  1.759500224306794 5.736214689206144 0  1.664417452571073 5.764522056821088 0  1.568879645722924 5.791253461664091 0  1.4729129228448 5.81640159563598 0  1.376543520280515 5.839959583488033 0  1.279797784462486 5.861920984701595 0  1.182702164708886 5.882279795248856 0  1.085283205992663 5.901030449234294 0  0.9875675416844072 5.918167820416333 0  0.88958188
[...]
<PointData  Scalars="f_20"> 
<DataArray  type="Float64"  Name="f_20"  format="ascii">-8.6232159106916917e-01  8.6119225012195300e-01  7.5348804757983745e-01  -7.5461259938317482e-01  8.6193675907689227e-01  -8.6157738175453835e-01  -7.5387586332254819e-01  7.5423382867793842e-01  -8.6223290137748942e-01  8.6128099301397809e-01  7.5357768045929352e-01  -7.5452477812481855e-01  8.6223431546282803e-01  -8.6127948899062967e-01  -7.5357626161727920e-01  7.5452536425989047e-01  0.0000000000000000e+00  0.0000000000000000e+00  0.0000000000000000e+00  0.0000000000000000e+00  -7.5587229030237590e-01  -6.4883348953302877e-01  -5.4138579029509137e-01  -4.3360998079542828e-01  -3.2557455950281489e-01  -2.1734548232315812e-01  -1.0898748433276900e-01  -5.6532147433171402e-04  1.0785673683491083e-01  2.1621452589486995e-01  3.2444384889666084e-01  4.3247961026155934e-01  5.4025512313447921e-01  6.4770320987501850e-01  7.5474229628439149e-01  8.3987158720475152e-01  8.1837617776646421e-01  7.9682333102139113e-01  7.7521890607964039e-01  6.4692616978654061e-01  5.3978837052153417e-01  4.3222071643337917e-01  3.2431674440888736e-01  2.1616186951132954e-01  1.0784010141078905e-01  -5.6560051767110345e-04  -1.0897064737214625e-01  -2.1729262073388175e-01  -3.2544776321278718e-01  -4.3335194820627793e-01  -5.4092040118041462e-01  -6.4806131614433904e-01  -7.7634867624447357e-01  -7.9795376029134868e-01  -8.1950644119590577e-01  -8.4100167636567491e-01  7.5548696708038887e-01  6.4844796546987771e-01  5.4100024577527139e-01  4.3322440140478341e-01  3.2518895082291538e-01  2.1695990120727621e-01  1.0860207965984489e-01  1.7994312512583895e-04  -1.0824206710669276e-01  -2.1659984952047120e-01  -3.2482905874318252e-01  -4.3286477856466105e-01  -5.4064032630524572e-01  -6.4808827017664372e-01  -7.5512714042370033e-01  -8.4025551585260716e-01  -8.1876186375288740e-01  -7.9720919358540276e-01  -7.7560368339952246e-01  -6.4731088579538798e-01  -5.4017251399371180e-01  -4.3260564201484297e-01  -3.2470196866565160e-01  -2.1654702586493135e-01  -1.0822532859703488e-01  1.7979745197894650e-04  1.0858531686557828e-01  2.1690720115924850e-01  3.2506205421049739e-01  4.3296573819879763e-01  5.4053358543202246e-01  6.4767114751886634e-01  7.7596375114814597e-01  7.9756829229313164e-01  8.1912100208849292e-01  8.4061639701536495e-01  -7.5578353468129789e-01  -6.4874470047025223e-01  -5.4129690859992441e-01  -4.3352107036079995e-01  -3.2548569568393387e-01  -2.1725653409358159e-01  -1.0889857542577158e-01  -4.7625671002029222e-04  1.0794568111877384e-01  2.1630353183832277e-01  3.2453286909496709e-01  4.3256862942565066e-01  5.4034412667931198e-01  6.4779218018552298e-01  7.5483120399790016e-01  8.3996048185390004e-01  8.1846513264570597e-01  7.9691233732729860e-01  7.7530799508985748e-01  6.4701516531291270e-01  5.3987761598440664e-01  4.3230998910790142e-01  3.2440601798709107e-01  2.1625088979206855e-01  1.0792909392082431e-01  -4.7648727926556087e-04  -1.0888172417135621e-01  -2.1720367021108908e-01  -3.2535864207160814e-01  -4.3326294430549539e-01  -5.4083156996669801e-01  -6.4797247777831957e-01  -7.7626012539990075e-01  -7.9786506366679122e-01  -8.1941769764436145e-01  -8.4091293092818165e-01  7.5578498414709727e-01  6.4874617831473991e-01  5.4129839447151062e-01  4.3352257639346237e-01  3.2548720872087911e-01  2.1725805618224919e-01  1.0890010057308670e-01  4.7778056046928808e-04  -1.0794416150727813e-01  -2.1630201829012577e-01  -3.2453136283446044e-01  -4.3256713105034472e-01  -5.4034263577021158e-01  -6.4779069435882075e-01  -7.5482971725876180e-01  -8.3995899848170541e-01  -8.1846366581180618e-01  -7.9691089531833015e-01  -7.7530659027414783e-01  -6.4701392479373487e-01  -5.3987614417069330e-01  -4.3230845506247018e-01  -3.2440441580488899e-01  -2.1624941360981426e-01  -1.0792764303733443e-01  4.7817478622890364e-04  1.0888322857206352e-01  2.1720522002571452e-01  3.2536038658579935e-01  4.3326459698209191e-01  5.4083307491843347e-01  6.4797401966065327e-01  7.7626138130022493e-01  7.9786644736159673e-01  8.1941912444411258e-01  8.4091436807216635e-01  0.0000000000000000e+00  0.0000000000000000e+00  0.0000000000000000e+00  0.0000000000000000e+00  0.0000000000000000e+00  0.0000000000000000e+00  0.0000000000000000e+00  0.0000000000000000e+00  0.0000000000000000e+00  0.0000000000000000e+00  0.0000000000000000e+00  0.0000000000000000e+00  0.0000000000000000e+00  0.0000000000000000e+00  0.0000000000000000e+00  0.0000000000000000e+00  0.0000000000000000e+00  0.0000000000000000e+00  0.0000000000000000e+00  0.0000000000000000e+00  0.0000000000000000e+00  0.0000000000000000e+00  0.0000000000000000e+00  0.0000000000000000e+00  0.0000000000000000e+00  0.0000000000000000e+00  0.0000000000000000e+00  0.0000000000000000e+00  0.0000000000000000e+00  0.0000000000000000e+00  0.0000000000000000e+00  0.0000000000000000e+00  0.0000000000000000e+00  0.0000000000000000e+00  0.0000000000000000e+00  0.0000000000000000e+00  0.0000000000000000e+00  0.0000000000000000e+00  0.0000000000000000e+00  0.0000000000000000e+00  0.0000000000000000e+00  0.0000000000000000e+00  0.0000000000000000e+00  0.0000000000000000e+00  0.0000000000000000e+00  0.0000000000000000e+00  0.0000000000000000e+00  0.0000000000000000e+00  0.0000000000000000e+00  0.0000000000000000e+00  0.0000000000000000e+00  0.0000000000000000e+00  0.0000000000000000e+00  0.0000000000000000e+00  0.0000000000000000e+00  0.0000000000000000e+00  0.0000000000000000e+00  0.0000000000000000e+00  0.0000000000000000e+00  0.0000000000000000e+00  0.0000000000000000e+00  0.0000000000000000e+00  0.0000000000000000e+00  0.0000000000000000e+00  0.0000000000000000e+00  0.0000000000000000e+00  0.0000000000000000e+00  0.0000000000000000e+00  0.0000000000000000e+00  0.0000000000000000e+00  0.0000000000000000e+00  0.0000000000000000e+00  0.0000000000000000e+00  0.0000000000000000e+00  0.0000000000000000e+00  0.0000000000000000e+00  0.0000000000000000e+00  0.0000000000000000e+00  0.0000000000000000e+00  0.0000000000000000e+00  0.0000000000000000e+00  0.0000000000000000e+00  0.0000000000000000e+00  0.0000000000000000e+00  0.0000000000000000e+00  0.0000000000000000e+00  0.0000000000000000e+00  0.0000000000000000e+00  0.0000000000000000e+00  0.0000000000000000e+00  0.0000000000000000e+00  0.0000000000000000e+00  0.0000000000000000e+00  0.0000000000000000e+00  0.0000000000000000e+00  0.0000000000000000e+00  0.0000000000000000e+00  0.0000000000000000e+00  0.0000000000000000e+00  0.0000000000000000e+00  0.0000000000000000e+00  0.0000000000000000e+00  0.0000000000000000e+00  0.0000000000000000e+00  0.0000000000000000e+00  0.0000000000000000e+00  0.0000000000000000e+00  0.0000000000000000e+00  0.0000000000000000e+00  0.0000000000000000e+00  0.0000000000000000e+00  0.0000000000000000e+00  0.0000000000000000e+00  0.0000000000000000e+00  0.0000000000000000e+00  0.0000000000000000e+00  0.0000000000000000e+00  0.0000000000000000e+00  0.0000000000000000e+00  0.0000000000000000e+00  0.0000000000000000e+00  0.0000000000000000e+00  0.0000000000000000e+00  0.0000000000000000e+00  0.0000000000000000e+00  0.0000000000000000e+00  0.0000000000000000e+00  0.0000000000000000e+00  0.0000000000000000e+00  0.0000000000000000e+00  0.0000000000000000e+00  0.0000000000000000e+00  0.0000000000000000e+00  0.0000000000000000e+00  0.0000000000000000e+00  0.0000000000000000e+00  0.0000000000000000e+00  0.0000000000000000e+00  0.0000000000000000e+00  0.0000000000000000e+00  0.0000000000000000e+00  0.0000000000000000e+00  0.0000000000000000e+00  0.0000000000000000e+00  0.0000000000000000e+00  0.0000000000000000e+00  0.0000000000000000e+00  0.0000000000000000e+00  0.0000000000000000e+00  0.0000000000000000e+00  0.0000000000000000e+00  0.0000000000000000e+00  0.0000000000000000e+00  0.0000000000000000e+00  0.0000000000000000e+00  0.0000000000000000e+00  0.0000000000000000e+00  0.0000000000000000e+00  0.0000000000000000e+00  0.0000000000000000e+00  0.0000000000000000e+00  0.0000000000000000e+00  0.0000000000000000e+00  0.0000000000000000e+00  0.0000000000000000e+00  0.0000000000000000e+00  0.0000000000000000e+00  0.0000000000000000e+00  0.0000000000000000e+00  0.0000000000000000e+00  0.0000000000000000e+00  0.0000000000000000e+00  0.0000000000000000e+00  0.0000000000000000e+00  0.0000000000000000e+00  0.0000000000000000e+00  0.0000000000000000e+00  0.0000000000000000e+00  0.0000000000000000e+00  0.0000000000000000e+00  0.0000000000000000e+00  0.0000000000000000e+00  0.0000000000000000e+00  0.0000000000000000e+00  0.0000000000000000e+00  0.0000000000000000e+00  0.0000000000000000e+00  0.0000000000000000e+00  0.0000000000000000e+00  0.0000000000000000e+00  0.0000000000000000e+00  0.0000000000000000e+00  0.0000000000000000e+00  0.0000000000000000e+00  0.0000000000000000e+00  0.0000000000000000e+00  0.0000000000000000e+00  0.0000000000000000e+00  0.0000000000000000e+00  0.0000000000000000e+00  0.0000000000000000e+00  0.0000000000000000e+00  0.0000000000000000e+00  0.0000000000000000e+00  0.0000000000000000e+00  0.0000000000000000e+00  0.0000000000000000e+00  0.0000000000000000e+00  0.0000000000000000e+00  0.0000000000000000e+00  0.0000000000000000e+00  0.0000000000000000e+00  0.0000000000000000e+00  0.0000000000000000e+00  0.0000000000000000e+00  0.0000000000000000e+00  0.0000000000000000e+00  0.0000000000000000e+00  0.0000000000000000e+00  0.0000000000000000e+00  0.0000000000000000e+00  0.0000000000000000e+00  0.0000000000000000e+00  0.0000000000000000e+00  0.0000000000000000e+00  0.0000000000000000e+00  0.0000000000000000e+00  0.0000000000000000e+00  0.0000000000000000e+00  0.0000000000000000e+00  0.0000000000000000e+00  0.0000000000000000e+00  0.0000000000000000e+00  0.0000000000000000e+00  0.0000000000000000e+00  0.0000000000000000e+00  0.0000000000000000e+00  0.0000000000000000e+00  0.0000000000000000e+00  0.0000000000000000e+00  0.0000000000000000e+00  0.0000000000000000e+00  0.0000000000000000e+00  0.0000000000000000e+00  0.0000000000000000e+00  0.0000000000000000e+00  0.0000000000000000e+00  0.0000000000000000e+00  0.0000000000000000e+00  0.0000000000000000e+00  0.0000000000000000e+00  0.0000000000000000e+00  0.0000000000000000e+00  0.0000000000000000e+00  0.0000000000000000e+00  0.0000000000000000e+00  0.0000000000000000e+00  0.0000000000000000e+00  0.0000000000000000e+00  0.0000000000000000e+00  0.0000000000000000e+00  0.0000000000000000e+00  0.0000000000000000e+00  0.0000000000000000e+00  0.0000000000000000e+00  0.0000000000000000e+00  0.0000000000000000e+00  0.0000000000000000e+00  0.0000000000000000e+00  0.0000000000000000e+00  0.0000000000000000e+00  0.0000000000000000e+00  0.0000000000000000e+00  0.0000000000000000e+00  0.0000000000000000e+00  0.0000000000000000e+00  0.0000000000000000e+00  0.0000000000000000e+00  0.0000000000000000e+00  0.0000000000000000e+00  0.0000000000000000e+00  0.0000000000000000e+00  0.0000000000000000e+00  0.0000000000000000e+00  0.0000000000000000e+00  0.0000000000000000e+00  0.0000000000000000e+00  0.0000000000000000e+00  0.0000000000000000e+00  0.0000000000000000e+00  0.0000000000000000e+00  0.0000000000000000e+00  0.0000000000000000e+00  0.0000000000000000e+00  0.0000000000000000e+00  0.0000000000000000e+00  0.0000000000000000e+00  0.0000000000000000e+00  0.0000000000000000e+00  0.0000000000000000e+00  0.0000000000000000e+00  0.0000000000000000e+00  0.0000000000000000e+00  0.0000000000000000e+00  0.0000000000000000e+00  0.0000000000000000e+00  0.0000000000000000e+00  0.0000000000000000e+00  0.0000000000000000e+00  0.0000000000000000e+00  0.0000000000000000e+00  0.0000000000000000e+00  0.0000000000000000e+00  0.0000000000000000e+00  0.0000000000000000e+00  0.0000000000000000e+00  0.0000000000000000e+00  0.0000000000000000e+00  0.0000000000000000e+00  0.0000000000000000e+00  0.0000000000000000e+00  0.0000000000000000e+00  0.0000000000000000e+00  0.0000000000000000e+00  0.0000000000000000e+00  0.0000000000000000e+00  0.0000000000000000e+00  0.0000000000000000e+00  0.0000000000000000e+00  0.0000000000000000e+00  0.0000000000000000e+00  0.0000000000000000e+00  0.0000000000000000e+00  0.0000000000000000e+00  0.0000000000000000e+00  0.0000000000000000e+00  0.0000000000000000e+00  0.0000000000000000e+00  0.0000000000000000e+00  0.0000000000000000e+00  0.0000000000000000e+00  0.0000000000000000e+00  0.0000000000000000e+00  0.0000000000000000e+00  0.0000000000000000e+00  0.0000000000000000e+00  0.0000000000000000e+00  0.0000000000000000e+00  0.0000000000000000e+00  0.0000000000000000e+00  0.0000000000000000e+00  0.0000000000000000e+00  0.0000000000000000e+00  0.0000000000000000e+00  0.0000000000000000e+00  0.0000000000000000e+00  0.0000000000000000e+00  0.0000000000000000e+00  0.0000000000000000e+00  0.0000000000000000e+00  0.0000000000000000e+00  0.0000000000000000e+00  0.0000000000000000e+00  0.0000000000000000e+00  0.0000000000000000e+00  0.0000000000000000e+00  0.0000000000000000e+00  0.0000000000000000e+00  0.0000000000000000e+00  0.0000000000000000e+00  0.0000000000000000e+00  0.0000000000000000e+00  0.0000000000000000e+00  0.0000000000000000e+00  0.0000000000000000e+00  0.0000000000000000e+00  -6.7300265279264540e-02  1.7157320736527323e-01  4.9736468794596045e-01  -4.9933958937675543e-01  -2.8489605115540345e-01  3.7040505555916631e-01  5.0889852309553285e-02  -1.5379189033961443e-01  -3.8134622264418927e-01  5.6978723306495915e-01  -5.6854800534250238e-01  7.2650869090342185e-01  -7.2773444716843949e-01  -7.2338310796102889e-01  7.2240517268899884e-01  6.0534037648500261e-01  5.6523660801106812e-01  4.5558462387996856e-01  5.1943565467521380e-01  4.1310509489103481e-01  3.4817842566827378e-01  3.0577184470045948e-01  4.7750297959955612e-01  2.3900633758054329e-01  1.9839817608016311e-01  2.7780295824444651e-01  1.3008071440676458e-01  8.9921008066378511e-02  2.5477176998544397e-02  -1.7306905468617326e-02  -8.1760276963668999e-02  -1.2210498700733850e-01  -1.8832062145699002e-01  -2.3163165719821269e-01  -2.9722647360694471e-01  -6.0895602827962925e-01  -5.6848035671661534e-01  -4.5955121990753800e-01  -5.2473930199008045e-01  -4.1340739331947091e-01  -4.7342332854692970e-01  -1.7927628255050873e-01  4.7396575930777715e-02  -3.9336437324307572e-01  2.7989535308086055e-01  3.8959338160673901e-01  1.5667089635362710e-01  -4.1833506993472422e-02  6.8808709388234668e-01  -2.7728523140817640e-01  -6.8762499466096461e-01  -3.5025896540640356e-01  -3.5402161089311879e-01  6.2684571782597498e-01  5.8845126383263324e-01  4.7808597966911359e-01  -4.7938541842019594e-01  3.6891749636737065e-01  -6.2974547969718087e-01  -5.8916626075181899e-01  -2.4422987189794371e-01  2.5082891640575189e-01  1.5649210714301179e-01  -6.8138390473424182e-01  6.9055454659635185e-01  6.8014398732043246e-01  -6.9112827646844044e-01  -1.3828109024017013e-01  4.7668213211912419e-02  6.6072556136008620e-01  -6.6185588678756491e-01  -7.6299356069843516e-01  7.6185451854886321e-01  -5.2906018378104755e-02  7.8379083515376491e-01  -7.8492083386737443e-01  -3.8085787617366654e-02  5.1095289115083757e-02  -1.7466825657499324e-01  -4.9724432485367875e-01  2.8228012491672683e-01  4.9936938571763645e-01  -3.7079035590809439e-01  -5.4910632237440735e-02  1.6970442946042058e-01  3.5875530102663233e-01  5.6816427521571922e-01  -5.7587249225609716e-01  -7.3400085857436337e-01  7.2735269662647428e-01  -7.1871250043778867e-01  7.2300012258590762e-01  6.0856935705716764e-01  5.6816413246898878e-01  4.5908621481404144e-01  5.2434747648254609e-01  4.1850638093165776e-01  3.5075711123965958e-01  3.1126288648389161e-01  2.4224465158968320e-01  2.0352725515307654e-01  1.3719192471980135e-01  9.5746443418717547e-02  2.9948994473667299e-02  -9.7967907400312425e-03  -7.6823901054994384e-02  -1.1823359801716918e-01  -1.8416162717732615e-01  -2.2346091536605506e-01  -2.8924021209330697e-01  -2.3764060530175862e-01  -3.5842931408898343e-01  -3.9282799123560974e-01  -4.7378968033013064e-01  -5.0290406609704885e-01  -5.7924493097756435e-01  4.9318991797967798e-01  2.6395324630066980e-01  1.7305074615039076e-01  6.0137870286158412e-02  -6.1022563514267736e-01  -3.8989423027347986e-01  -6.7710686751490001e-02  3.9062917164584243e-01  -7.0794000299575255e-01  -4.7669038303176864e-01  -1.6445889177041842e-01  6.8724656945854490e-01  -2.6960948001666618e-01  -6.1472216682699699e-01  -2.8364668541524851e-01  4.6188292551526905e-01  6.2937820677887091e-01  5.9214443352281509e-01  3.7974277761238795e-01  -3.2260058142338943e-01  -5.4195888007937643e-01  -1.3264633173471349e-01  2.6691230502098856e-01  6.8156492613176944e-01  -6.8906612694342861e-01  6.9074214760555264e-01  1.6001392766840428e-01  -4.1481666123524025e-01  -6.4345250274920340e-01  -6.7907489577894742e-01  -3.4477461710328644e-02  -4.4971401254185850e-01  -6.6111047763126873e-01  6.6147036519515512e-01  7.6270363894179760e-01  -7.8417641038289099e-01  7.8453557105870553e-01  -7.6397420469878596e-01  -6.7204143735433167e-02  1.6974439672490624e-01  4.9745385572063144e-01  -4.9925070725703730e-01  -2.8435455017534922e-01  3.7049408069933143e-01  5.0978849062383293e-02  -1.5370294235571907e-01  -3.8125732687833358e-01  -5.6845916561167542e-01  5.6987623313710112e-01  -7.2764569924237688e-01  7.2659769459347545e-01  -7.2329433865002979e-01  7.2249411708899614e-01  6.0542949974940619e-01  5.6532570235560953e-01  4.5567373229882091e-01  5.1952471378714826e-01  4.1319415990113539e-01  3.4826752009478162e-01  3.0586089848892717e-01  4.7759201240355853e-01  2.3877573843989416e-01  1.9833668905295734e-01  2.7786690162063737e-01  1.2933279143429338e-01  8.9845439655191928e-02  2.5566184922843755e-02  -1.7245344648629674e-02  -8.1674148859917792e-02  -1.2202106827643966e-01  -1.8823937344159425e-01  -2.3154271801644122e-01  -2.9713753909615892e-01  -6.0886725592608226e-01  -5.6839153864585001e-01  -4.5946232907097401e-01  -5.2465045422541978e-01  -4.1331849608192583e-01  -4.7333445728863210e-01  -1.7911710649649515e-01  4.7093090855874445e-02  -3.9319997966628611e-01  2.7891868153211180e-01  3.8950490824878914e-01  1.5675990663858846e-01  -4.1749938703915634e-02  6.8817616258564207e-01  -2.7719631498072550e-01  -6.8753627898348046e-01  -3.5008203309354508e-01  -3.5393270266271409e-01  6.2693475712494107e-01  5.8854027857330726e-01  4.7817499625439369e-01  -4.7929653892379620e-01  3.6900152066212444e-01  -6.2965668900007810e-01  -5.8907743906975174e-01  -2.4407369146950539e-01  2.5091375016381806e-01  1.5658026315483828e-01  -6.8129512341670095e-01  6.9064367121423342e-01  6.8023297312374997e-01  -6.9103964963948084e-01  -1.3819951278636550e-01  4.7717727084487994e-02  -6.6176709431880221e-01  6.6081452842716604e-01  -7.6290480275344708e-01  7.6194346536500057e-01  -5.2817431699786789e-02  7.8387972493178548e-01  -7.8483208764375201e-01  -3.8025627733308698e-02  6.7205705999114310e-02  -1.6974289230167675e-01  -4.9745237094641642e-01  4.9925224545934116e-01  2.8435614896134354e-01  -3.7049257821675208e-01  -5.0977326224876322e-02  1.5370446891173378e-01  3.8125883886516981e-01  -5.6987474573986197e-01  5.6846064860806755e-01  -7.2659623650331617e-01  7.2764712598870185e-01  7.2329578955277540e-01  -7.2249263633779859e-01  -6.0542808126189906e-01  -5.6532423987302205e-01  -4.5567223824901942e-01  -5.1952323096612130e-01  -4.1319266150512041e-01  -3.4826600965560028e-01  -3.0585938948590141e-01  -4.7759052025923060e-01  -2.3877422348332136e-01  -1.9833517223531985e-01  -2.7786539180497399e-01  -1.2933126817299637e-01  -8.9843914392018553e-02  -2.5564648849232787e-02  1.7246876651813660e-02  8.1675690575859841e-02  1.2202260210447535e-01  1.8824091654530259e-01  2.3154424972961862e-01  2.9713907973087850e-01  6.0886870850146735e-01  5.6839301952422294e-01  4.5946386102347969e-01  5.2465194987660613e-01  4.1332002127087369e-01  4.7333595955792596e-01  -4.7091543760404947e-02  1.7911866091271442e-01  3.9320158193528454e-01  -2.7891715863744193e-01  -3.8950338354612596e-01  -1.5675838837003914e-01  4.1751466597486110e-02  -6.8817473412004226e-01  2.771978362