<?xml version="1.0"?>
<VTKFile type="UnstructuredGrid"  version="0.1"  >
<UnstructuredGrid>
<Piece  NumberOfPoints="1945" NumberOfCells="3760">
<Points>
<DataArray  type="Float64"  NumberOfComponents="3"  format="ascii">3.325878449210181 2.222280932078409 0  2.222280932078409 3.32587844921018 0  1.944495815568608 2.910143643058908 0  2.910143643058908 1.944495815568608 0  -2.222280932078409 3.325878449210181 0  -3.32587844921018 2.222280932078409 0  -2.910143643058908 1.944495815568608 0  -1.944495815568607 2.910143643058908 0  -3.325878449210181 -2.222280932078408 0  -2.22228093207841 -3.32587844921018 0  -1.944495815568609 -2.910143643058908 0  -2.910143643058909 -1.944495815568607 0  2.222280932078408 -3.325878449210181 0  3.32587844921018 -2.22228093207841 0  2.910143643058908 -1.944495815568609 0  1.944495815568607 -2.910143643058909 0  6 0 0  3.673940397442059e-16 6 0  -1.102182119232618e-15 -6 0  -6 7.347880794884119e-16 0  3.173413361164942 2.435045716034881 0  3.007359229915911 2.637383260400274 0  2.828427124746191 2.82842712474619 0  2.637383260400276 3.007359229915909 0  2.435045716034884 3.17341336116494 0  2.083388373823509 3.118011046134545 0  2.166828822584419 2.748609258082607 0  2.375802609365295 2.5701287830249 0  2.5701287830249 2.375802609365296 0  2.748609258082609 2.166828822584418 0  3.118011046134544 2.083388373823508 0  -2.435045716034882 3.173413361164941 0  -2.637383260400274 3.007359229915911 0  -2.82842712474619 2.828427124746191 0  -3.007359229915908 2.637383260400278 0  -3.17341336116494 2.435045716034884 0  -3.118011046134545 2.083388373823509 0  -2.748609258082607 2.166828822584419 0  -2.5701287830249 2.375802609365296 0  -2.375802609365296 2.5701287830249 0  -2.166828822584418 2.748609258082609 0  -2.083388373823508 3.118011046134544 0  -3.173413361164941 -2.435045716034882 0  -3.00735922991591 -2.637383260400275 0  -2.828427124746191 -2.828427124746189 0  -2.637383260400277 -3.007359229915908 0  -2.435045716034884 -3.17341336116494 0  -2.083388373823509 -3.118011046134544 0  -2.166828822584418 -2.748609258082608 0  -2.375802609365296 -2.5701287830249 0  -2.5701287830249 -2.375802609365296 0  -2.748609258082608 -2.166828822584419 0  -3.118011046134545 -2.083388373823508 0  2.435045716034881 -3.173413361164942 0  2.637383260400275 -3.00735922991591 0  2.82842712474619 -2.82842712474619 0  3.00735922991591 -2.637383260400274 0  3.173413361164941 -2.435045716034882 0  3.118011046134544 -2.083388373823509 0  2.748609258082607 -2.166828822584419 0  2.570128783024899 -2.375802609365297 0  2.375802609365296 -2.5701287830249 0  2.16682882258442 -2.748609258082607 0  2.083388373823508 -3.118011046134545 0  5.992772737231034 0.2944060459645064 0  5.971108360033181 0.5881028419773635 0  5.935059059788686 0.8803828467321695 0  5.884711682419383 1.17054193209677 0  5.820187519167264 1.457881079419583 0  5.741642014393253 1.741708063526773 0  5.649264391098125 2.02133912035332 0  5.54327719506772 2.296100594190538 0  5.423935758740661 2.565330560581691 0  5.291527586090131 2.828380420955986 0  5.146371660001632 3.084616465159329 0  4.988817673815273 3.333421398117612 0  4.81924518888387 3.574195826954599 0  4.473226266401406 3.994319656851617 0  3.397293390964815 5.274915979131093 0  4.242640687119286 4.242640687119285 0  3.890461170827212 4.653574155205389 0  2.841654746105005 5.949527640383828 0  2.181048763444736 5.661704181387421 0  3.125553995041976 5.127710232070172 0  1.956984168674178 6.320697551115282 0  2.65160372565935 5.468304281386766 0  2.565330560581695 5.423935758740659 0  2.296100594190542 5.543277195067719 0  2.02133912035332 5.649264391098125 0  1.741708063526774 5.741642014393253 0  1.457881079419585 5.820187519167264 0  1.170541932096772 5.884711682419382 0  0.8803828467321739 5.935059059788685 0  0.5881028419773627 5.971108360033181 0  0.2944060459645081 5.992772737231034 0  0.2944060459645067 -5.992772737231034 0  0.5881028419773613 -5.971108360033181 0  0.8803828467321685 -5.935059059788686 0  1.170541932096767 -5.884711682419383 0  1.457881079419579 -5.820187519167265 0  1.741708063526771 -5.741642014393254 0  2.021339120353316 -5.649264391098126 0  2.296100594190533 -5.543277195067724 0  2.565330560581686 -5.423935758740662 0  2.828380420955979 -5.291527586090133 0  3.084616465159323 -5.146371660001637 0  3.333421398117605 -4.988817673815277 0  3.574195826954591 -4.819245188883876 0  3.806359704981865 -4.638062720176428 0  4.029353729082103 -4.445706752129762 0  4.242640687119277 -4.242640687119294 0  4.445706752129746 -4.02935372908212 0  4.638062720176414 -3.806359704981881 0  4.819245188883862 -3.574195826954609 0  4.988817673815266 -3.333421398117622 0  5.146371660001628 -3.084616465159337 0  5.291527586090127 -2.828380420955992 0  5.423935758740658 -2.565330560581697 0  5.543277195067718 -2.296100594190544 0  5.649264391098123 -2.021339120353324 0  5.741642014393252 -1.741708063526779 0  5.820187519167263 -1.457881079419587 0  5.884711682419383 -1.170541932096771 0  5.935059059788686 -0.8803828467321708 0  5.971108360033181 -0.5881028419773651 0  5.992772737231034 -0.2944060459645078 0  -0.294406045964506 5.992772737231034 0  -0.5881028419773605 5.971108360033181 0  -0.8803828467321717 5.935059059788685 0  -1.17054193209677 5.884711682419383 0  -1.457881079419582 5.820187519167264 0  -1.741708063526773 5.741642014393253 0  -2.021339120353318 5.649264391098125 0  -2.29610059419054 5.54327719506772 0  -2.565330560581693 5.42393575874066 0  -2.828380420955986 5.291527586090131 0  -3.084616465159328 5.146371660001633 0  -3.333421398117611 4.988817673815273 0  -3.574195826954597 4.819245188883872 0  -3.806359704981873 4.638062720176421 0  -4.02935372908211 4.445706752129755 0  -4.242640687119285 4.242640687119286 0  -4.445706752129753 4.029353729082112 0  -4.63806272017642 3.806359704981876 0  -4.819245188883871 3.574195826954599 0  -4.988817673815271 3.333421398117613 0  -5.146371660001632 3.084616465159331 0  -5.29152758609013 2.828380420955988 0  -5.423935758740659 2.565330560581695 0  -5.543277195067719 2.296100594190542 0  -5.649264391098125 2.02133912035332 0  -5.741642014393253 1.741708063526775 0  -5.820187519167264 1.457881079419585 0  -5.884711682419382 1.170541932096772 0  -5.935059059788685 0.8803828467321744 0  -5.971108360033181 0.5881028419773631 0  -5.992772737231034 0.2944060459645085 0  -5.992772737231034 -0.2944060459645075 0  -5.971108360033181 -0.5881028419773624 0  -5.935059059788686 -0.8803828467321688 0  -5.884711682419383 -1.170541932096767 0  -5.820187519167265 -1.457881079419581 0  -5.741642014393254 -1.741708063526771 0  -5.649264391098126 -2.021339120353317 0  -5.543277195067722 -2.296100594190535 0  -5.423935758740662 -2.565330560581688 0  -5.291527586090133 -2.82838042095598 0  -5.146371660001636 -3.084616465159324 0  -4.988817673815276 -3.333421398117608 0  -4.819245188883873 -3.574195826954594 0  -4.638062720176427 -3.806359704981867 0  -4.445706752129761 -4.029353729082104 0  -4.242640687119291 -4.242640687119279 0  -4.029353729082119 -4.445706752129747 0  -3.80635970498188 -4.638062720176416 0  -3.574195826954607 -4.819245188883865 0  -3.333421398117619 -4.988817673815268 0  -3.084616465159336 -5.146371660001629 0  -2.82838042095599 -5.291527586090128 0  -2.565330560581696 -5.423935758740659 0  -2.296100594190541 -5.543277195067719 0  -2.021339120353323 -5.649264391098123 0  -1.741708063526776 -5.741642014393253 0  -1.457881079419584 -5.820187519167264 0  -1.17054193209677 -5.884711682419383 0  -0.8803828467321692 -5.935059059788686 0  -0.588102841977362 -5.971108360033181 0  -0.2944060459645061 -5.992772737231034 0  2.915156841980636 2.392407392152562 0  2.392407392152564 2.915156841980633 0  2.632780978595949 2.632780978595948 0  2.193352175472403 2.948725006331014 0  2.948725006331014 2.193352175472401 0  2.806253581863684 2.570325696459986 0  2.570325696459987 2.806253581863683 0  -2.392407392152563 2.915156841980636 0  -2.915156841980633 2.392407392152565 0  -2.632780978595948 2.632780978595949 0  -2.948725006331014 2.193352175472403 0  -2.193352175472402 2.948725006331014 0  -2.570325696459986 2.806253581863684 0  -2.806253581863683 2.570325696459987 0  -2.392407392152564 -2.915156841980633 0  -2.915156841980635 -2.392407392152562 0  -2.632780978595949 -2.632780978595948 0  -2.193352175472404 -2.948725006331014 0  -2.948725006331014 -2.193352175472401 0  -2.570325696459987 -2.806253581863683 0  -2.806253581863684 -2.570325696459986 0  2.915156841980636 -2.392407392152562 0  2.392407392152562 -2.915156841980635 0  2.632780978595948 -2.632780978595949 0  2.193352175472401 -2.948725006331014 0  2.948725006331013 -2.193352175472401 0  2.806253581863683 -2.570325696459987 0  2.570325696459986 -2.806253581863684 0  1.925572322694977 2.639134625171056 0  -1.92232616923692 -2.645287183878194 0  2.64712409774355 -1.922155627516517 0  -2.648274943387382 1.923384087579763 0  2.787488962107224 -1.70941019206243 0  2.542925862726263 -1.688489328276631 0  -2.789103548075794 1.710945081734277 0  -2.545130264192913 1.690760146552866 0  -1.710957449679152 -2.796228356974146 0  -1.687026159560195 -2.537366256462976 0  1.696277503281115 2.804183418317023 0  1.682021434129873 2.528522578904899 0  0.1461801294631497 -5.744762652997465 0  5.738041777059731 0.1212139300521339 0  -0.1507639746302462 5.753390243880809 0  -5.74833899732751 -0.1653304082660088 0  2.690457541353841 -1.484513769064787 0  2.441267741892439 -1.459166490790358 0  -2.692991208121424 1.487088013477411 0  -2.444869468445 1.462608422096474 0  -1.475970410916221 -2.689097231831853 0  -1.450059279949902 -2.430834284585079 0  1.451463094369326 2.696629502999064 0  1.427672345987618 2.4275231842402 0  -2.592343774301277 1.25849909164082 0  -2.342247848901301 1.232475341883488 0  2.58883818248634 -1.254798802702198 0  2.33767881708085 -1.228229843487766 0  3.129462775028485 1.839103806469651 0  -3.13460308779227 -1.833423244468993 0  1.833568907354139 -3.134221719802569 0  1.6933
[...]
<CellData  Vectors="f_89"> 
<DataArray  type="Float64"  Name="f_89"  NumberOfComponents="3" format="ascii">7.8030287636489926e-01  7.8114349842229147e-01 0.0000000000000000e+00  7.8120659847795004e-01  7.8051542031640408e-01 0.0000000000000000e+00  7.8133594197215783e-01  7.8130625409194554e-01 0.0000000000000000e+00  7.8133249347420131e-01  7.8131451868901092e-01 0.0000000000000000e+00  7.8093994936137034e-01  7.8103453072834406e-01 0.0000000000000000e+00  7.8106021626141942e-01  7.8085970818412775e-01 0.0000000000000000e+00  7.8097792559956247e-01  7.8103635836864727e-01 0.0000000000000000e+00  7.8106561634578542e-01  7.8097191565175594e-01 0.0000000000000000e+00  7.8104601974542864e-01  7.8100636364538900e-01 0.0000000000000000e+00  7.8106067979236504e-01  7.8105035893570052e-01 0.0000000000000000e+00  7.8102546762156033e-01  7.8092318051407716e-01 0.0000000000000000e+00  7.8094012140603331e-01  7.8100521471721129e-01 0.0000000000000000e+00  7.8091346366466774e-01  7.8089587357056667e-01 0.0000000000000000e+00  7.8100080460329990e-01  7.8099889859521132e-01 0.0000000000000000e+00  7.8105446705637838e-01  7.8101272894876617e-01 0.0000000000000000e+00  7.8122654393200841e-01  7.8068322973085869e-01 0.0000000000000000e+00  7.8045772074505515e-01  7.8107139952209759e-01 0.0000000000000000e+00  7.8099195430508273e-01  7.8098655333626055e-01 0.0000000000000000e+00  7.8099981973718746e-01  7.8099441876836539e-01 0.0000000000000000e+00  7.8169360617251005e-01  7.8075564057050295e-01 0.0000000000000000e+00  7.8057199933404009e-01  7.8180851587200906e-01 0.0000000000000000e+00  7.8099278907466696e-01  7.8099627010651507e-01 0.0000000000000000e+00  7.8101883642632675e-01  7.8099605249575277e-01 0.0000000000000000e+00  7.8102243031452034e-01  7.8114624616121120e-01 0.0000000000000000e+00  7.8127051322541696e-01  7.8101497316041490e-01 0.0000000000000000e+00  7.8100082364572099e-01  7.8099894918971036e-01 0.0000000000000000e+00  7.8102008175539361e-01  7.8099978723788110e-01 0.0000000000000000e+00  7.8044171742270751e-01  -7.8122620088551020e-01 0.0000000000000000e+00  7.8122261931046133e-01  -7.8043868315845610e-01 0.0000000000000000e+00  7.8131433002223227e-01  -7.8136367777660631e-01 0.0000000000000000e+00  7.8136020692358898e-01  -7.8131199854838451e-01 0.0000000000000000e+00  7.8104151516841502e-01  -7.8085415122718360e-01 0.0000000000000000e+00  7.8086277694914008e-01  -7.8103971022845742e-01 0.0000000000000000e+00  7.8104669143194561e-01  -7.8096170795836728e-01 0.0000000000000000e+00  7.8096250753208662e-01  -7.8104450985163021e-01 0.0000000000000000e+00  7.8100848108553211e-01  -7.8107934790062006e-01 0.0000000000000000e+00  7.8107613862648451e-01  -7.8100643098775369e-01 0.0000000000000000e+00  7.8100235980616872e-01  -7.8090789534221416e-01 0.0000000000000000e+00  7.8090937160984297e-01  -7.8100073569626283e-01 0.0000000000000000e+00  7.8087942984996195e-01  -7.8087792460311745e-01 0.0000000000000000e+00  7.8099830587456187e-01  -7.8099358074840386e-01 0.0000000000000000e+00  7.8099503946766502e-01  -7.8099793322184097e-01 0.0000000000000000e+00  7.8124615540901854e-01  -7.8074986787188116e-01 0.0000000000000000e+00  7.8072345908167595e-01  -7.8122789359363920e-01 0.0000000000000000e+00  7.8097725632988857e-01  -7.8097629518367861e-01 0.0000000000000000e+00  7.8097760742863453e-01  -7.8097664628242447e-01 0.0000000000000000e+00  7.8079356298329750e-01  -7.8168007569123765e-01 0.0000000000000000e+00  7.8167032801588610e-01  -7.8081562933139104e-01 0.0000000000000000e+00  7.8098404815074174e-01  -7.8097719960608791e-01 0.0000000000000000e+00  7.8097780248388671e-01  -7.8098265245043441e-01 0.0000000000000000e+00  7.8128367381851005e-01  -7.8103294009959523e-01 0.0000000000000000e+00  7.8103189775719906e-01  -7.8126877407359552e-01 0.0000000000000000e+00  7.8099654492324100e-01  -7.8098890201297833e-01 0.0000000000000000e+00  7.8099037645358460e-01  -7.8099617818761546e-01 0.0000000000000000e+00  -7.8122974883435559e-01  -7.8044140407049289e-01 0.0000000000000000e+00  -7.8045372322087125e-01  -7.8122780558059590e-01 0.0000000000000000e+00  -7.8136726853794591e-01  -7.8131428841548356e-01 0.0000000000000000e+00  -7.8131672892578741e-01  -7.8136376894094006e-01 0.0000000000000000e+00  -7.8104246313505055e-01  -7.8086587127297846e-01 0.0000000000000000e+00  -7.8086015192486036e-01  -7.8104504802726948e-01 0.0000000000000000e+00  -7.8104727830252163e-01  -7.8096592484834781e-01 0.0000000000000000e+00  -7.8096583642223893e-01  -7.8105013418787983e-01 0.0000000000000000e+00  -7.8108459707304712e-01  -7.8101022340411319e-01 0.0000000000000000e+00  -7.8100974724599326e-01  -7.8107838601992130e-01 0.0000000000000000e+00  -7.8091213873945442e-01  -7.8100589724590475e-01 0.0000000000000000e+00  -7.8100425597661316e-01  -7.8091370154569295e-01 0.0000000000000000e+00  -7.8088241912244194e-01  -7.8088399730856917e-01 0.0000000000000000e+00  -7.8099688699220315e-01  -7.8100049261142579e-01 0.0000000000000000e+00  -7.8100157221736899e-01  -7.8099651594496411e-01 0.0000000000000000e+00  -7.8076120720421116e-01  -7.8124934795642187e-01 0.0000000000000000e+00  -7.8122892540464717e-01  -7.8071921107976150e-01 0.0000000000000000e+00  -7.8098012923183935e-01  -7.8098141865214166e-01 0.0000000000000000e+00  -7.8097994289623796e-01  -7.8098123231654015e-01 0.0000000000000000e+00  -7.8168907670348653e-01  -7.8079055048385604e-01 0.0000000000000000e+00  -7.8082580419584213e-01  -7.8166600954726817e-01 0.0000000000000000e+00  -7.8098738381979582e-01  -7.8098187156770060e-01 0.0000000000000000e+00  -7.8098060393238644e-01  -7.8098694419624959e-01 0.0000000000000000e+00  -7.8127069790706916e-01  -7.8103437996559932e-01 0.0000000000000000e+00  -7.8103808320240475e-01  -7.8128604511729305e-01 0.0000000000000000e+00  -7.8099312016877798e-01  -7.8099907487947851e-01 0.0000000000000000e+00  -7.8100046182383420e-01  -7.8099356570011280e-01 0.0000000000000000e+00  -7.8122743052074362e-01  7.8044344093144513e-01 0.0000000000000000e+00  -7.8044150770937792e-01  7.8122930329691076e-01 0.0000000000000000e+00  -7.8131518699778901e-01  7.8136694824090003e-01 0.0000000000000000e+00  -7.8136438948868769e-01  7.8131276609651723e-01 0.0000000000000000e+00  -7.8086920106142022e-01  7.8104316230197235e-01 0.0000000000000000e+00  -7.8104523969696038e-01  7.8085910463467256e-01 0.0000000000000000e+00  -7.8096781675136728e-01  7.8104790826992609e-01 0.0000000000000000e+00  -7.8105042824788729e-01  7.8096691668365481e-01 0.0000000000000000e+00  -7.8108183570767642e-01  7.8100882767575464e-01 0.0000000000000000e+00  -7.8101181224671279e-01  7.8108491847064265e-01 0.0000000000000000e+00  -7.8100659286030616e-01  7.8091370643376012e-01 0.0000000000000000e+00  -7.8091538554017326e-01  7.8100471466590082e-01 0.0000000000000000e+00  -7.8088603123139588e-01  7.8088431310086792e-01 0.0000000000000000e+00  -7.8100278125175027e-01  7.8099577573225765e-01 0.0000000000000000e+00  -7.8099821366911981e-01  7.8100255310082523e-01 0.0000000000000000e+00  -7.8125166090306253e-01  7.8076412456929944e-01 0.0000000000000000e+00  -7.8073375350086283e-01  7.8123095842542034e-01 0.0000000000000000e+00  -7.8098179185461669e-01  7.8098080642318124e-01 0.0000000000000000e+00  -7.8098226465269149e-01  7.8098127922125604e-01 0.0000000000000000e+00  -7.8166512685058787e-01  7.8082822612542724e-01 0.0000000000000000e+00  -7.8080297464041371e-01  7.8167744655741034e-01 0.0000000000000000e+00  -7.8098225780672681e-01  7.8098623013493484e-01 0.0000000000000000e+00  -7.8098803306908016e-01  7.8098177478700714e-01 0.0000000000000000e+00  -7.8103758513726063e-01  7.8127122828814333e-01 0.0000000000000000e+00  -7.8128800568572654e-01  7.8103834191310295e-01 0.0000000000000000e+00  -7.8099449476119731e-01  7.8100115340299614e-01 0.0000000000000000e+00  -7.8100161827441561e-01  7.8099268577560166e-01 0.0000000000000000e+00  1.9795190407997658e-03  1.0135053059800846e-01 0.0000000000000000e+00  -4.6043401179633181e-02  -7.5849878986580452e-02 0.0000000000000000e+00  1.3980397096908620e-01  -7.3265958616321042e-02 0.0000000000000000e+00  -3.7612560960492161e-02  -4.3603410959730887e-02 0.0000000000000000e+00  -3.7907108219191948e-01  -3.9071010753828100e-02 0.0000000000000000e+00  -5.1177661324274273e-02  1.3713491443071305e-01 0.0000000000000000e+00  -5.5826573624691407e-02  9.4028291548309509e-02 0.0000000000000000e+00  5.3658253364814654e-02  -1.4279169809720399e-01 0.0000000000000000e+00  9.0142084836737552e-02  2.2280287571129365e-03 0.0000000000000000e+00  7.1262336827730685e-02  -4.4870372095162328e-02 0.0000000000000000e+00  -8.9759367420354286e-02  2.9391223548642813e-02 0.0000000000000000e+00  1.2750049541862052e-01  8.4147612392532739e-02 0.0000000000000000e+00  -7.3251292778596142e-02  2.6315077432172561e-02 0.0000000000000000e+00  -4.6024195648555241e-02  -7.5864212737242323e-02 0.0000000000000000e+00  7.9772251875978584e-03  7.3894614009996112e-02 0.0000000000000000e+00  -1.1362039823186064e-01  3.4933430758520539e-02 0.0000000000000000e+00  1.1858609287033602e-01  1.5330181518793980e-02 0.0000000000000000e+00  2.3893755464018265e-01  1.4045719029905207e-01 0.0000000000000000e+00  3.1679919945649299e-01  1.4192426054960781e+00 0.0000000000000000e+00  -1.3427428601299291e-01  -1.2287580768088335e-03 0.0000000000000000e+00  1.0305248658549227e-02  -5.8840121876527251e-03 0.0000000000000000e+00  1.2510228275130136e-01  -9.5294929627352254e-02 0.0000000000000000e+00  3.4399065226470604e-01  1.9004069856176020e-01 0.0000000000000000e+00  -6.6954992889827550e-02  -3.4678737635386182e-02 0.0000000000000000e+00  4.4148712361787856e-01  1.0870834380826434e-01 0.0000000000000000e+00  -1.2006794762657047e-01  -9.5178832230774793e-02 0.0000000000000000e+00  1.0358764539029815e-01  6.3479551142273313e-03 0.0000000000000000e+00  -2.4341097600908033e-04  -4.5924630728238568e-02 0.0000000000000000e+00  1.2105467365747508e-01  8.4248414106238081e-02 0.0000000000000000e+00  1.0199430257429097e-01  -4.5378346157773121e-02 0.0000000000000000e+00  1.0382074836529098e-01  5.4860704891615264e-03 0.0000000000000000e+00  -5.7198196781806314e-02  6.6986659076700622e-02 0.0000000000000000e+00  2.7211403462975636e-01  9.3972978368276427e-01 0.0000000000000000e+00  -1.5687303553501855e-02  -8.4848602197556286e-02 0.0000000000000000e+00  -1.2869481921188641e-01  2.7338910335924727e-02 0.0000000000000000e+00  2.3746546965259831e-03  9.6732708092095998e-02 0.0000000000000000e+00  -2.1397331920486770e-01  -3.0101903620935160e-02 0.0000000000000000e+00  -1.3083067550350583e-01  -6.6075114254248557e-02 0.0000000000000000e+00  -4.2872145494385694e-01  -7.1285349281095103e-02 0.0000000000000000e+00  6.6988240199706058e-03  -9.6699070389779332e-02 0.0000000000000000e+00  1.7349173449138539e-01  6.2445679062766303e-02 0.0000000000000000e+00  -7.2442032826003037e-03  -1.0398559517893473e-01 0.0000000000000000e+00  -3.8739844258142881e-04  -1.0106587545313309e-01 0.0000000000000000e+00  9.8143486020880272e-02  3.4158913963967426e-03 0.0000000000000000e+00  -2.4198194620203263e-02  -1.3259237581657426e-01 0.0000000000000000e+00  1.0884058380470994e-01  1.0437278736388568e-01 0.0000000000000000e+00  1.2449528674826620e-02  1.0093811185222749e-01 0.0000000000000000e+00  2.3929939061900302e-02  1.3243041181967138e-01 0.0000000000000000e+00  -1.3814485852637465e-03  -9.9771878864313601e-02 0.0000000000000000e+00  -4.5992397571493523e-02  2.7923618510262184e-03 0.0000000000000000e+00  -2.4540331877809837e-02  1.8889517363429080e-02 0.0000000000000000e+00  5.0298790312345409e-02  -1.0771420368248226e-01 0.0000000000000000e+00  -1.2193848815359110e-01  -8.2275679237862998e-02 0.0000000000000000e+00  7.5030704277829503e-03  -1.1262937735752848e-01 0.0000000000000000e+00  1.0021375148314714e-01  -2.2911571367455336e-03 0.0000000000000000e+00  -1.1430976918466250e-02  -8.5043900991413054e-02 0.0000000000000000e+00  2.6158485525996011e-03  1.0097516343958438e-01 0.0000000000000000e+00  -2.4607686533483126e-02  1.0958300440860232e-01 0.0000000000000000e+00  -3.8002457024359261e-02  2.2520325314090769e-01 0.0000000000000000e+00  -1.8302954719766434e-02  5.1655285927092238e-02 0.0000000000000000e+00  6.9502785902028880e-02  -8.0316729779894000e-02 0.0000000000000000e+00  1.6411695180034125e-01  -1.7166928971427714e-01 0.0000000000000000e+00  8.4864066850649539e-02  1.3629040216745542e-01 0.0000000000000000e+00  1.2927291209886683e-02  -1.5371604847784465e-01 0.0000000000000000e+00  2.5154257886781134e-02  -1.1201699717490672e-01 0.0000000000000000e+00  1.8854601438088875e-01  -1.5512849095910264e-01 0.0000000000000000e+00  1.0897930855458457e-01  2.4472122096120000e-02 0.0000000000000000e+00  9.6072341580100418e-02  -2.3584436085696361e-03 0.0000000000000000e+00  1.0026002439424818e-01  -1.2548332283226701e-04 0.0000000000000000e+00  -9.6450142971315433e-02  -1.9012420325964256e-03 0.0000000000000000e+00  -9.1190614593001512e-02  2.8125069879106367e-02 0.0000000000000000e+00  5.7536562279420563e-02  6.4984664811382334e-02 0.0000000000000000e+00  -6.8623755869128084e-02  -4.0410537729657955e-02 0.0000000000000000e+00  -1.6255407027184261e-02  1.1272272751157324e-01 0.0000000000000000e+00  -1.1302123127224957e-02  9.5286754504830776e-02 0.0000000000000000e+00  -3.6152722275952710e-02  1.3715493696820669e-01 0.0000000000000000e+00  -1.8404347365140850e-02  -2.5665831765363673e-01 0.0000000000000000e+00  6.0444112062145875e-03  7.0800776457465478e-02 0.0000000000000000e+00  2.9829159276470105e-02  -4.8067998109377237e-03 0.0000000000000000e+00  -8.6618433474656059e-02  6.7285902034151843e-02 0.0000000000000000e+00  8.1152683369205655e-02  -3.7737283269219560e-02 0.0000000000000000e+00  9.9847818026017984e-02  -2.9129144496261978e-03 0.0000000000000000e+00  -9.8848341267231160e-02  2.5426263303700297e-01 0.0000000000000000e+00  -3.4071613972005838e-02  -1.1682550776387335e-01 0.0000000000000000e+00  -7.5660958413013282e-03  1.0987784190372306e-01 0.0000000000000000e+00  3.6989399457564895e-02  -1.4237513311243216e-01 0.0000000000000000e+00  2.9500817822296022e-02  -2.1040336350635086e-01 0.0000000000000000e+00  -5.0039789306956857e-02  4.0359673730534479e-02 0.0000000000000000e+00  2.4033862111452109e-01  6.2116734309438926e-02 0.0000000000000000e+00  -1.0573397208482944e-02  -1.7298829118011658e-01 0.0000000000000000e+00  -6.8632938724694725e-02  -1.2115408026913282e-01 0.0000000000000000e+00  -2.4751775130665088e-01  -1.0079461981491449e-01 0.0000000000000000e+00  7.1261991310937522e-02  1.2537465667201431e-01 0.0000000000000000e+00  4.9370996980992940e-02  1.8578947723768252e-01 0.0000000000000000e+00  -1.0725407063519757e-01  3.0603112035157878e-02 0.0000000000000000e+00  6.4364951082357413e-04  -1.0050880961399604e-01 0.0000000000000000e+00  1.2664466229461638e-01  -2.5325513438375920e-02 0.0000000000000000e+00  1.3683877186721136e-01  -6.1021701375071978e-02 0.0000000000000000e+00  1.5723029932333907e-01  -9.5168470150758272e-02 0.0000000000000000e+00  1.3082444855649222e-01  6.7973452784406668e-02 0.0000000000000000e+00  8.7097454748878078e-01  -1.6050780682456195e-01 0.0000000000000000e+00  -1.1574262866562520e-02  -1.2205697019735384e-01 0.0000000000000000e+00  -5.4559060112986957e-01  6.6759216888958528e-02 0.0000000000000000e+00  1.6733788933764274e-02  -1.1486962660018515e-01 0.0000000000000000e+00  1.5151193510233030e-01  1.8022517041358023e-02 0.0000000000000000e+00  1.1209163527247616e-01  1.6425062309134254e-02 0.0000000000000000e+00  -1.0995639630111446e-01  -2.3931327096668206e-01 0.0000000000000000e+00  -1.1263615683903723e-01  1.9440090898483125e-02 0.0000000000000000e+00  1.3064378586401727e-02  -9.1108246101875706e-03 0.0000000000000000e+00  2.5805638407273512e-01  -3.5553198848773448e-01 0.0000000000000000e+00  -8.3343052926613412e-02  1.2340534022774663e-01 0.0000000000000000e+00  8.9608754939192473e-02  -1.3131338581461033e-01 0.0000000000000000e+00  -9.1191123434120377e-02  2.2386164288727152e-03 0.0000000000000000e+00  6.6214623779668080e-02  1.3933803160951752e-01 0.0000000000000000e+00  1.0005892391525803e-01  -1.2341091185447978e-02 0.0000000000000000e+00  -9.5472611472986912e-02  2.5640322915430136e-03 0.0000000000000000e+00  5.1024401805752108e-02  1.3836261624313334e-01 0.0000000000000000e+00  -9.5625743902112856e-02  6.8882045262339664e-01 0.0000000000000000e+00  1.0975043986216004e-01  7.8568437083311043e-03 0.0000000000000000e+00  -2.3416554871867692e-02  2.4590887625329216e-01 0.0000000000000000e+00  -3.6182812192657260e-01  -6.1480909652606941e-01 0.0000000000000000e+00  2.4783319370358581e-01  7.2698229221419530e-01 0.0000000000000000e+00  -1.3621171093637710e-01  6.0965510655880489e-02 0.0000000000000000e+00  -7.0459012516766326e-02  -6.2777956472402940e-01 0.0000000000000000e+00  -1.5213036320223247e-01  -1.6068627134790375e-02 0.0000000000000000e+00  1.3374523671051297e-01  9.5933694080920284e-02 0.0000000000000000e+00  1.3916175420257845e-02  -6.9853605844782493e-02 0.0000000000000000e+00  -1.5349380678432625e-01  -7.7675676523981857e-02 0.0000000000000000e+00  -9.3561795318955490e-02  4.2520800918910287e-03 0.0000000000000000e+00  1.0760099255351500e-01  -5.6984370237821991e-02 0.0000000000000000e+00  3.6402221146239686e-03  -1.0238786524811418e-01 0.0000000000000000e+00  2.9533695405219128e-02  -7.7957605072384820e-02 0.0000000000000000e+00  -5.2238800377678559e-03  -7.9170766292290931e-02 0.0000000000000000e+00  2.4085473436715021e-01  -4.5030843971080292e-01 0.0000000000000000e+00  1.7074959362376582e-01  -1.0771812949749605e-01 0.0000000000000000e+00  1.1788041363813217e-02  1.9284821392048876e-01 0.0000000000000000e+00  1.1040613314604439e-01  -3.8379501622964149e-02 0.0000000000000000e+00  -1.3710914317919818e-02  -6.8629582836589972e-02 0.0000000000000000e+00  -6.4580520520229001e-02  -1.3818290014391915e-01 0.0000000000000000e+00  5.0306887198238270e-01  1.2118944380250442e-01 0.0000000000000000e+00  1.2557102677225698e-01  9.2038054650682034e-03 0.0000000000000000e+00  -1.1253400200041399e-03  9.5853739102297927e-02 0.0000000000000000e+00  -6.1151375654462256e-02  4.0426502666833758e-02 0.0000000000000000e+00  2.9168876780728131e-03  9.6370536498448414e-02 0.0000000000000000e+00  -1.2384185205379955e-01  -8.7325058723146127e-03 0.0000000000000000e+00  5.1487998105532680e-02  -1.4535914176164885e-01 0.0000000000000000e+00  -4.9713744275765609e-02  1.3894823409456070e-01 0.0000000000000000e+00  2.8896303936783531e-02  1.2101320527080495e-01 0.0000000000000000e+00  -2.9233186873336370e-02  -1.2161483150361251e-01 0.0000000000000000e+00  -3.8766392908016659e-02  8.4565026260697604e-02 0.0000000000000000e+00  -1.4356248462765002e-02  -3.3502701908242241e-02 0.0000000000000000e+00  4.1537386728524653e-03  8.6408484880335049e-02 0.0000000000000000e+00  -6.3360857643202428e-02  6.1233668542384177e-02 0.0000000000000000e+00  1.6324898425738071e-01  9.8572204538499950e-02 0.0000000000000000e+00  9.3016050039132325e-02  -2.3451746371469612e-01 0.0000000000000000e+00  1.1774967302091419e-02  6.1402993269084355e-02 0.0000000000000000e+00  -1.5016424737481148e-02  1.0667608473347333e-01 0.0000000000000000e+00  -5.5632988052689647e-01  3.9557003940470620e-01 0.0000000000000000e+00  3.5582017084261758e-03  -1.0716760916016256e-01 0.0000000000000000e+00  1.4048084055534316e-02  1.1090895835243113e-01 0.0000000000000000e+00  -1.3198788814463906e-02  3.8535448987351006e-02 0.0000000000000000e+00  1.1024457650473093e-02  1.0191087923892835e-01 0.0000000000000000e+00  6.5121333475798163e-03  9.8624175450574711e-02 0.0000000000000000e+00  5.5386363414557804e-01  -3.9235781574004136e-01 0.0000000000000000e+00  -9.6356250211877520e-02  -7.6219899942249619e-03 0.0000000000000000e+00  1.1077550733917740e-01  -1.0106191780340140e-02 0.0000000000000000e+00  -1.2884623748728788e-01  -2.1608778787841926e-02 0.0000000000000000e+00  7.0178077478355666e-02  -1.4391311590846612e-01 0.0000000000000000e+00  -6.6782415386654109e-02  1.3