<?xml version="1.0"?>
<VTKFile type="UnstructuredGrid"  version="0.1"  >
<UnstructuredGrid>
<Piece  NumberOfPoints="1945" NumberOfCells="3760">
<Points>
<DataArray  type="Float64"  NumberOfComponents="3"  format="ascii">3.325878449210181 2.222280932078409 0  2.222280932078409 3.32587844921018 0  1.944495815568608 2.910143643058908 0  2.910143643058908 1.944495815568608 0  -2.222280932078409 3.325878449210181 0  -3.32587844921018 2.222280932078409 0  -2.910143643058908 1.944495815568608 0  -1.944495815568607 2.910143643058908 0  -3.325878449210181 -2.222280932078408 0  -2.22228093207841 -3.32587844921018 0  -1.944495815568609 -2.910143643058908 0  -2.910143643058909 -1.944495815568607 0  2.222280932078408 -3.325878449210181 0  3.32587844921018 -2.22228093207841 0  2.910143643058908 -1.944495815568609 0  1.944495815568607 -2.910143643058909 0  6 0 0  3.673940397442059e-16 6 0  -1.102182119232618e-15 -6 0  -6 7.347880794884119e-16 0  3.173413361164942 2.435045716034881 0  3.007359229915911 2.637383260400274 0  2.828427124746191 2.82842712474619 0  2.637383260400276 3.007359229915909 0  2.435045716034884 3.17341336116494 0  2.083388373823509 3.118011046134545 0  2.166828822584419 2.748609258082607 0  2.375802609365295 2.5701287830249 0  2.5701287830249 2.375802609365296 0  2.748609258082609 2.166828822584418 0  3.118011046134544 2.083388373823508 0  -2.435045716034882 3.173413361164941 0  -2.637383260400274 3.007359229915911 0  -2.82842712474619 2.828427124746191 0  -3.007359229915908 2.637383260400278 0  -3.17341336116494 2.435045716034884 0  -3.118011046134545 2.083388373823509 0  -2.748609258082607 2.166828822584419 0  -2.5701287830249 2.375802609365296 0  -2.375802609365296 2.5701287830249 0  -2.166828822584418 2.748609258082609 0  -2.083388373823508 3.118011046134544 0  -3.173413361164941 -2.435045716034882 0  -3.00735922991591 -2.637383260400275 0  -2.828427124746191 -2.828427124746189 0  -2.637383260400277 -3.007359229915908 0  -2.435045716034884 -3.17341336116494 0  -2.083388373823509 -3.118011046134544 0  -2.166828822584418 -2.748609258082608 0  -2.375802609365296 -2.5701287830249 0  -2.5701287830249 -2.375802609365296 0  -2.748609258082608 -2.166828822584419 0  -3.118011046134545 -2.083388373823508 0  2.435045716034881 -3.173413361164942 0  2.637383260400275 -3.00735922991591 0  2.82842712474619 -2.82842712474619 0  3.00735922991591 -2.637383260400274 0  3.173413361164941 -2.435045716034882 0  3.118011046134544 -2.083388373823509 0  2.748609258082607 -2.166828822584419 0  2.570128783024899 -2.375802609365297 0  2.375802609365296 -2.5701287830249 0  2.16682882258442 -2.748609258082607 0  2.083388373823508 -3.118011046134545 0  5.992772737231034 0.2944060459645064 0  5.971108360033181 0.5881028419773635 0  5.935059059788686 0.8803828467321695 0  5.884711682419383 1.17054193209677 0  5.820187519167264 1.457881079419583 0  5.741642014393253 1.741708063526773 0  5.649264391098125 2.02133912035332 0  5.54327719506772 2.296100594190538 0  5.423935758740661 2.565330560581691 0  5.291527586090131 2.828380420955986 0  5.146371660001632 3.084616465159329 0  4.988817673815273 3.333421398117612 0  4.81924518888387 3.574195826954599 0  4.638062720176423 3.806359704981872 0  4.445706752129754 4.029353729082111 0  4.242640687119286 4.242640687119285 0  4.029353729082112 4.445706752129753 0  3.806359704981876 4.63806272017642 0  3.574195826954599 4.819245188883871 0  3.333421398117613 4.988817673815271 0  3.084616465159331 5.146371660001632 0  2.828380420955987 5.29152758609013 0  2.565330560581695 5.423935758740659 0  2.296100594190542 5.543277195067719 0  2.02133912035332 5.649264391098125 0  1.741708063526774 5.741642014393253 0  1.457881079419585 5.820187519167264 0  1.170541932096772 5.884711682419382 0  0.8803828467321739 5.935059059788685 0  0.5881028419773627 5.971108360033181 0  0.2944060459645081 5.992772737231034 0  0.2944060459645067 -5.992772737231034 0  0.5881028419773613 -5.971108360033181 0  0.8803828467321685 -5.935059059788686 0  1.170541932096767 -5.884711682419383 0  1.457881079419579 -5.820187519167265 0  1.741708063526771 -5.741642014393254 0  2.021339120353316 -5.649264391098126 0  2.296100594190533 -5.543277195067724 0  2.565330560581686 -5.423935758740662 0  2.828380420955979 -5.291527586090133 0  3.084616465159323 -5.146371660001637 0  3.333421398117605 -4.988817673815277 0  3.574195826954591 -4.819245188883876 0  3.806359704981865 -4.638062720176428 0  4.029353729082103 -4.445706752129762 0  4.242640687119277 -4.242640687119294 0  4.445706752129746 -4.02935372908212 0  4.638062720176414 -3.806359704981881 0  4.819245188883862 -3.574195826954609 0  4.988817673815266 -3.333421398117622 0  5.146371660001628 -3.084616465159337 0  5.291527586090127 -2.828380420955992 0  5.423935758740658 -2.565330560581697 0  5.543277195067718 -2.296100594190544 0  5.649264391098123 -2.021339120353324 0  5.741642014393252 -1.741708063526779 0  5.820187519167263 -1.457881079419587 0  5.884711682419383 -1.170541932096771 0  5.935059059788686 -0.8803828467321708 0  5.971108360033181 -0.5881028419773651 0  5.992772737231034 -0.2944060459645078 0  -0.294406045964506 5.992772737231034 0  -0.5881028419773605 5.971108360033181 0  -0.8803828467321717 5.935059059788685 0  -1.17054193209677 5.884711682419383 0  -1.457881079419582 5.820187519167264 0  -1.741708063526773 5.741642014393253 0  -2.021339120353318 5.649264391098125 0  -2.29610059419054 5.54327719506772 0  -2.565330560581693 5.42393575874066 0  -2.828380420955986 5.291527586090131 0  -3.084616465159328 5.146371660001633 0  -3.333421398117611 4.988817673815273 0  -3.574195826954597 4.819245188883872 0  -3.806359704981873 4.638062720176421 0  -4.02935372908211 4.445706752129755 0  -4.242640687119285 4.242640687119286 0  -4.445706752129753 4.029353729082112 0  -4.63806272017642 3.806359704981876 0  -4.819245188883871 3.574195826954599 0  -4.988817673815271 3.333421398117613 0  -5.146371660001632 3.084616465159331 0  -5.29152758609013 2.828380420955988 0  -5.423935758740659 2.565330560581695 0  -5.543277195067719 2.296100594190542 0  -5.649264391098125 2.02133912035332 0  -5.741642014393253 1.741708063526775 0  -5.820187519167264 1.457881079419585 0  -5.884711682419382 1.170541932096772 0  -5.935059059788685 0.8803828467321744 0  -5.971108360033181 0.5881028419773631 0  -5.992772737231034 0.2944060459645085 0  -5.992772737231034 -0.2944060459645075 0  -5.971108360033181 -0.5881028419773624 0  -5.935059059788686 -0.8803828467321688 0  -5.884711682419383 -1.170541932096767 0  -5.820187519167265 -1.457881079419581 0  -5.741642014393254 -1.741708063526771 0  -5.649264391098126 -2.021339120353317 0  -5.543277195067722 -2.296100594190535 0  -5.423935758740662 -2.565330560581688 0  -5.291527586090133 -2.82838042095598 0  -5.146371660001636 -3.084616465159324 0  -4.988817673815276 -3.333421398117608 0  -4.819245188883873 -3.574195826954594 0  -4.638062720176427 -3.806359704981867 0  -4.445706752129761 -4.029353729082104 0  -4.242640687119291 -4.242640687119279 0  -4.029353729082119 -4.445706752129747 0  -3.80635970498188 -4.638062720176416 0  -3.574195826954607 -4.819245188883865 0  -3.333421398117619 -4.988817673815268 0  -3.084616465159336 -5.146371660001629 0  -2.82838042095599 -5.291527586090128 0  -2.565330560581696 -5.423935758740659 0  -2.296100594190541 -5.543277195067719 0  -2.021339120353323 -5.649264391098123 0  -1.741708063526776 -5.741642014393253 0  -1.457881079419584 -5.820187519167264 0  -1.17054193209677 -5.884711682419383 0  -0.8803828467321692 -5.935059059788686 0  -0.588102841977362 -5.971108360033181 0  -0.2944060459645061 -5.992772737231034 0  2.915156841980636 2.392407392152562 0  2.392407392152564 2.915156841980633 0  2.632780978595949 2.632780978595948 0  2.193352175472403 2.948725006331014 0  2.948725006331014 2.193352175472401 0  2.806253581863684 2.570325696459986 0  2.570325696459987 2.806253581863683 0  -2.392407392152563 2.915156841980636 0  -2.915156841980633 2.392407392152565 0  -2.632780978595948 2.632780978595949 0  -2.948725006331014 2.193352175472403 0  -2.193352175472402 2.948725006331014 0  -2.570325696459986 2.806253581863684 0  -2.806253581863683 2.570325696459987 0  -2.392407392152564 -2.915156841980633 0  -2.915156841980635 -2.392407392152562 0  -2.632780978595949 -2.632780978595948 0  -2.193352175472404 -2.948725006331014 0  -2.948725006331014 -2.193352175472401 0  -2.570325696459987 -2.806253581863683 0  -2.806253581863684 -2.570325696459986 0  2.915156841980636 -2.392407392152562 0  2.392407392152562 -2.915156841980635 0  2.632780978595948 -2.632780978595949 0  2.193352175472401 -2.948725006331014 0  2.948725006331013 -2.193352175472401 0  2.806253581863683 -2.570325696459987 0  2.570325696459986 -2.806253581863684 0  1.930060969664054 2.634797018368643 0  -1.922086258532537 -2.645524775830266 0  2.647713475842721 -1.922770498171337 0  -2.647649067885806 1.922777722650525 0  2.788460855133403 -1.710432257825138 0  2.544136742153094 -1.689753360384464 0  -2.788387419050104 1.710250218432419 0  -2.543967360983074 1.689632701331238 0  -1.710647097504147 -2.796536359896888 0  -1.686547857913467 -2.537840227697988 0  1.706464689765438 2.794389344116387 0  1.69061780632208 2.520221884410563 0  0.1462184727734656 -5.744801077331835 0  5.739049029773151 0.1201032826910478 0  -0.1473142161875337 5.750089231875846 0  -5.748287145779752 -0.1653810039297552 0  2.692042217370751 -1.486178287280118 0  2.443018520460548 -1.460992693955132 0  -2.691862504629568 1.48599228375713 0  -2.443310817553167 1.4610961634956 0  -1.475442101317638 -2.689621706187982 0  -1.449367792617928 -2.431519904712106 0  1.464907654591587 2.683696459934236 0  1.438599799672522 2.416973308339966 0  -2.590900315677588 1.257096882130737 0  -2.3403928257618 1.230673965769834 0  2.590962493748216 -1.257026858830058 0  2.339924809586634 -1.230569254227431 0  3.134409568452778 1.833687535029979 0  -3.134426550494212 -1.833596232317473 0  1.833746744381243 -3.134401412962175 0  
[...]
<PointData  Scalars="f_20"> 
<DataArray  type="Float64"  Name="f_20"  format="ascii">-8.5762486700582707e-01  8.6608760025067932e-01  7.5831999453660126e-01  -7.4979221425709330e-01  8.6195815608334125e-01  -8.6177405206032431e-01  -7.5401319208934181e-01  7.5420484957672629e-01  -8.6145953712751755e-01  8.6227601508409957e-01  7.5451042488523068e-01  -7.5370588729324295e-01  8.6172516093821705e-01  -8.6200786516332228e-01  -7.5424704008087362e-01  7.5397210503909129e-01  0.0000000000000000e+00  0.0000000000000000e+00  0.0000000000000000e+00  0.0000000000000000e+00  -5.7242156982618075e-01  -2.8471519594378875e-01  4.2253251743435902e-03  2.9316803716485329e-01  5.8087963368916762e-01  8.1236402147321241e-01  4.5854823457178290e-01  1.5596936225467983e-01  -1.4752400502907362e-01  -4.5011339135123940e-01  -8.0389411736930272e-01  5.7675015061424117e-01  2.8903660812510479e-01  9.1518020469194414e-05  -2.8885337055712074e-01  -5.7656677565313119e-01  -8.0805184935587093e-01  -4.5423609296302364e-01  -1.5165467870342098e-01  1.5183706919601697e-01  4.5441738338087945e-01  8.0823690548218086e-01  -5.7625123822457036e-01  -2.8853762792821924e-01  4.0751698162357232e-04  2.8935299884162424e-01  5.7706643763480037e-01  8.0855202674113236e-01  4.5473543278426870e-01  1.5215413036712838e-01  -1.5133791480604944e-01  -4.5391844731102915e-01  -8.0773805614548688e-01  5.7651738366104466e-01  2.8880364169733430e-01  -1.4155869518982426e-04  -2.8908650631795418e-01  -5.7679992540095670e-01  -8.0828548007962486e-01  -4.5446956468814748e-01  -1.5188807862016065e-01  1.5160418261817091e-01  4.5418407513343184e-01  8.0800391937142724e-01  0.0000000000000000e+00  0.0000000000000000e+00  0.0000000000000000e+00  0.0000000000000000e+00  0.0000000000000000e+00  0.0000000000000000e+00  0.0000000000000000e+00  0.0000000000000000e+00  0.0000000000000000e+00  0.0000000000000000e+00  0.0000000000000000e+00  0.0000000000000000e+00  0.0000000000000000e+00  0.0000000000000000e+00  0.0000000000000000e+00  0.0000000000000000e+00  0.0000000000000000e+00  0.0000000000000000e+00  0.0000000000000000e+00  0.0000000000000000e+00  0.0000000000000000e+00  0.0000000000000000e+00  0.0000000000000000e+00  0.0000000000000000e+00  0.0000000000000000e+00  0.0000000000000000e+00  0.0000000000000000e+00  0.0000000000000000e+00  0.0000000000000000e+00  0.0000000000000000e+00  0.0000000000000000e+00  0.0000000000000000e+00  0.0000000000000000e+00  0.0000000000000000e+00  0.0000000000000000e+00  0.0000000000000000e+00  0.0000000000000000e+00  0.0000000000000000e+00  0.0000000000000000e+00  0.0000000000000000e+00  0.0000000000000000e+00  0.0000000000000000e+00  0.0000000000000000e+00  0.0000000000000000e+00  0.0000000000000000e+00  0.0000000000000000e+00  0.0000000000000000e+00  0.0000000000000000e+00  0.0000000000000000e+00  0.0000000000000000e+00  0.0000000000000000e+00  0.0000000000000000e+00  0.0000000000000000e+00  0.0000000000000000e+00  0.0000000000000000e+00  0.0000000000000000e+00  0.0000000000000000e+00  0.0000000000000000e+00  0.0000000000000000e+00  0.0000000000000000e+00  0.0000000000000000e+00  0.0000000000000000e+00  0.0000000000000000e+00  0.0000000000000000e+00  0.0000000000000000e+00  0.0000000000000000e+00  0.0000000000000000e+00  0.0000000000000000e+00  0.0000000000000000e+00  0.0000000000000000e+00  0.0000000000000000e+00  0.0000000000000000e+00  0.0000000000000000e+00  0.0000000000000000e+00  0.0000000000000000e+00  0.0000000000000000e+00  0.0000000000000000e+00  0.0000000000000000e+00  0.0000000000000000e+00  0.0000000000000000e+00  0.0000000000000000e+00  0.0000000000000000e+00  0.0000000000000000e+00  0.0000000000000000e+00  0.0000000000000000e+00  0.0000000000000000e+00  0.0000000000000000e+00  0.0000000000000000e+00  0.0000000000000000e+00  0.0000000000000000e+00  0.0000000000000000e+00  0.0000000000000000e+00  0.0000000000000000e+00  0.0000000000000000e+00  0.0000000000000000e+00  0.0000000000000000e+00  0.0000000000000000e+00  0.0000000000000000e+00  0.0000000000000000e+00  0.0000000000000000e+00  0.0000000000000000e+00  0.0000000000000000e+00  0.0000000000000000e+00  0.0000000000000000e+00  0.0000000000000000e+00  0.0000000000000000e+00  0.0000000000000000e+00  0.0000000000000000e+00  0.0000000000000000e+00  0.0000000000000000e+00  0.0000000000000000e+00  0.0000000000000000e+00  0.0000000000000000e+00  0.0000000000000000e+00  0.0000000000000000e+00  0.0000000000000000e+00  0.0000000000000000e+00  0.0000000000000000e+00  0.0000000000000000e+00  0.0000000000000000e+00  0.0000000000000000e+00  0.0000000000000000e+00  0.0000000000000000e+00  0.0000000000000000e+00  -4.0402937554831819e-01  4.1248345036147771e-01  4.2247054658173678e-03  5.9417682423942697e-01  -5.8571362377185687e-01  -1.8002726479125442e-01  1.8847847593170960e-01  4.0835334528777578e-01  -4.0817006531068267e-01  9.1418318147202035e-05  -5.8986492871032836e-01  5.9004926710497752e-01  1.8434646514500994e-01  -1.8416343701765364e-01  4.0866951908602350e-01  -4.0785436000826147e-01  4.0781980579144520e-04  5.9036431428377600e-01  -5.8955034127571049e-01  1.8466280987329553e-01  -1.8384738078132959e-01  -4.0840337324970427e-01  4.0812034626769639e-01  -1.4169999628905593e-04  5.8981623988190579e-01  -5.9009842934297008e-01  -1.8439662877118440e-01  1.8411343525582111e-01  4.1523603538513909e-01  4.2386374415753475e-01  -4.2542219828097116e-01  -4.2508524236174455e-01  -4.4661505017084868e-01  -2.9599961546895021e-01  -4.4606233587141125e-01  -2.9550023923829211e-01  4.5468109854058930e-01  2.9325490271863741e-01  4.5636882337601176e-01  2.8959200681972785e-01  2.4209534487693127e-02  -2.4961995625888078e-02  2.3784497486203017e-02  -2.3819614957981308e-02  -3.1411231700362668e-01  -2.2627912886018306e-01  -3.1324160721875072e-01  -2.2547671041611320e-01  3.1103401046395335e-01  2.2179575965911785e-01  3.1022179440515457e-01  2.1854608479595322e-01  -2.4246338521547209e-01  -1.8252461176032173e-01  -2.4354762733652222e-01  -1.8356527785132024e-01  -5.8706363434934394e-01  -5.8507812252480362e-01  5.8535989849432146e-01  4.8117072114138593e-01  5.8578565025564333e-01  4.8121377507635726e-01  4.2912581117713239e-01  4.2937689143542512e-01  -4.8097118611580725e-01  -4.2913457100152419e-01  -2.9690198899114278e-01  -2.9798832399151781e-01  -4.9157454742670154e-01  -4.3502873410304249e-01  3.5662639382708528e-01  3.3696937729993426e-01  3.5692643044304634e-01  3.3727960306556859e-01  2.7208775437456319e-02  2.7035909273665781e-02  -3.5684727586478515e-01  -3.3715901995882747e-01  -3.6640053319326915e-01  -3.4291777259294770e-01  2.8964608645949519e-01  2.8034656853428203e-01  2.8983591848456125e-01  2.8059145739772073e-01  -2.8755039998578036e-02  -2.8581953516870734e-02  -2.9001799101123227e-01  -2.8062158538618426e-01  -2.9646856371871727e-01  -2.8538637343171269e-01  6.2004809148561901e-01  6.2353856050454659e-01  2.4839478526852973e-01  2.4421129619457962e-01  2.4040020204196744e-01  2.4862661044346540e-01  2.4450927624417237e-01  2.4041386511099833e-01  2.1502460418270869e-01  1.9654989239334775e-01  2.6126450943609830e-01  2.3256067500914793e-01  2.6147672448877257e-01  2.3290365461597340e-01  -2.4875217909749722e-01  -2.4445696593070013e-01  -2.4081212753459885e-01  -2.6155206542989373e-01  -2.3270195896068399e-01  -2.5377094762365365e-01  -2.4840592710415604e-01  -2.4719340495508135e-01  -2.6509927734267036e-01  -2.3579408904552243e-01  2.1512527680604146e-01  1.9635768907657153e-01  1.8370862686161829e-01  1.6061912723511856e-01  1.8366308088432234e-01  1.5977230178938218e-01  1.5581032527911579e-01  1.3144804279599343e-01  1.3100374254352559e-01  1.0611406686715502e-01  1.0843024037996353e-01  8.4317121757214550e-02  8.7478088138600765e-02  6.5440499814345063e-02  6.7691419185231416e-02  4.8568144029860434e-02  4.8893096949022191e-02  3.3149241753830182e-02  3.1037447920365006e-02  1.9725536415097247e-02  1.9210775170631640e-02  1.0125737210747304e-02  9.1903933163364534e-03  3.6443327622137150e-03  1.2177260139602420e-03  6.9366636490366326e-03  -3.1019003718394040e-04  -4.2908459374760679e-03  -1.7670705957955717e-03  -1.8967037021667182e-04  -7.0476415348197236e-03  -3.8079359423822632e-04  -7.2624813163307848e-03  3.5060197492793529e-03  -5.9123127256350185e-03  -1.9147689101271327e-02  -2.1543663780037439e-01  -1.9712513599750353e-01  -2.2009415436202329e-01  -2.3817050499656567e-01  -2.1683104025151906e-01  -2.4084568071894208e-01  -2.1928356512235492e-01  2.3786866969547171e-01  2.1664866903430635e-01  2.3798518873871932e-01  2.1693577820591231e-01  1.5543006891675418e-01  1.3024891173696362e-01  -4.4405502173798716e-03  -3.1985958232894032e-02  -3.1236478369354271e-02  9.6246492987927014e-03  -1.8421430121184337e-01  1.7589760645666036e-01  1.7599822460871670e-01  -1.6086502813084858e-01  3.3033915289635930e-02  3.1210811214908006e-02  -1.3975897605358440e-03  -3.3895334826081390e-02  -3.3933674703476684e-02  3.2491698558742704e-02  3.1109388012579450e-02  -2.1327428517820715e-01  -1.9862311678964326e-01  -2.1529133215259572e-01  -2.0052654721827823e-01  -1.5651418374525253e-01  2.1287811738584994e-01  1.9831883524898944e-01  2.0395804155322983e-01  1.9005747751223112e-01  2.1288568314810080e-01  1.9849322128718938e-01  2.0445385602279528e-01  1.9044703512251146e-01  8.1920013394528174e-02  -2.4211948286332832e-01  -2.7358736306460496e-01  5.4026250989777969e-01  4.4952841627989915e-01  5.4290415835077133e-01  4.5172072098629074e-01  -1.7717915703114140e-01  1.9857370326291474e-01  1.8758298642892721e-01  1.5326261974865646e-01  -2.0405860524682992e-01  -1.9027722383671655e-01  2.3459368044071952e-01  2.3468744149748810e-01  -2.3722900042198905e-01  -2.3512424525002923e-01  1.9934904932935260e-01  1.8820826007900909e-01  1.6264438286152302e-02  -1.3157370481418426e-01  -1.3304772231503978e-01  1.9039462641560759e-02  -2.0217756781895693e-01  -1.8815946846225381e-01  -1.3004031728267565e-01  -1.4705809508185111e-01  -1.2743845116220856e-01  -5.3239638771771103e-01  -5.3701478498174571e-01  5.3668219212932933e-01  5.3699995885190543e-01  -5.3230414172728924e-01  -5.3329489717443690e-01  -5.3815995886084456e-01  -5.3466059693986145e-01  5.3722034675206831e-01  5.3429685888822220e-01  -5.3611173288209180e-01  -5.3668257351379978e-01  -2.0282417328072597e-01  -2.0411842459555929e-01  -1.4800799453497471e-01  -1.2840291990628858e-01  2.0199878645835859e-01  1.0354149713974639e-01  1.0661831036753486e-01  2.0176353618325976e-01  6.1559436417785007e-03  2.3944813422090169e-01  3.7995262223973408e-01  3.4124401638800061e-01  3.8471719576838198e-01  3.8164531192800433e-01  3.4268472131023353e-01  3.8635379938503550e-01  -2.3345950249112485e-01  -2.5084109094222812e-01  2.2105070071845126e-01  -5.6045688582447573e-03  5.5683264446141356e-03  2.2121607682396055e-01  -2.2330080056117735e-01  -2.2186672282764791e-01  2.0107276962401133e-01  1.9148623187290190e-01  -1.9854789543833234e-01  -1.8766766812828747e-01  1.9990171328063527e-01  1.9054196408181928e-01  1.6409979590916277e-01  -1.0742632626408158e-01  -1.1079554033075877e-01  -2.4080642462714111e-01  -8.6164610578040521e-02  -8.1635136614599896e-02  -1.0399441043013957e-01  1.0416430273440250e-01  -1.3678597971560742e-02  -1.3945119564168851e-02  1.7268381806123645e-01  1.7611629255062095e-01  -2.7231916585959964e-01  -1.7367150293487282e-01  -1.7301604200229034e-01  1.6706772166297779e-01  -3.5908359320066241e-01  -3.4713193891089544e-01  -4.0884926298469770e-01  -3.5976467482309415e-01  -3.4804153458294246e-01  1.7300419121890651e-01  1.7665971357983823e-01  6.7036858795760726e-02  2.3747148213848965e-01  1.6889977183321497e-01  -3.5849350016931014e-01  -3.4472571622620451e-01  -3.5631131035023561e-01  -3.4337417748941573e-01  3.5767441265379118e-01  3.4368138467380904e-01  3.5952827061487258e-01  3.4689458181073529e-01  -4.1001415168989147e-01  -1.8458720873330070e-01  -1.8550208453886291e-01  -1.6474321748656279e-01  -1.5947425844022095e-01  1.8373176122030713e-01  1.8328123466727808e-01  2.1664401170387378e-02  2.1961065476802200e-02  -2.2362464275700081e-01  -2.3195730632398040e-01  3.2039014130751206e-02  2.9198715658533070e-01  2.9365835163187309e-01  2.3800209343767026e-01  2.9316098231440668e-01  2.9141204478401811e-01  1.7303579051826096e-01  -3.0156218988218814e-01  -3.2784072752598048e-01  -2.9972646690028321e-01  -3.2689211065569734e-01  -1.6968885986929053e-01  -8.5868780296803060e-02  -8.8662418264962170e-02  1.5358638040932998e-01  -2.3191951668917815e-01  -2.0594146219885193e-01  1.4292711590772231e-01  -8.6795925004604382e-02  -8.2486406642092586e-02  -2.5398603495021044e-01  -2.6769283367468988e-01  -2.1303088039152410e-01  -2.2245235039459513e-01  -2.5262354171579660e-01  -2.6681490540388908e-01  -2.1227499058792940e-01  -1.1417121705021414e-01  -7.7959350240465644e-02  -1.0334551061388073e-01  -1.9864085514503696e-01  -1.9956462703399930e-01  -4.1176245998008981e-02  -4.5695090781625661e-02  1.5400792501211069e-01  1.5685661710827789e-01  1.9789452888563921e-01  1.5395464848470275e-01  1.5687343170254259e-01  -1.1107282465188506e-01  1.9745876838866272e-01  -1.3404729172424848e-01  -1.9026653836261276e-01  -6.6113617848677420e-02  -6.2040084734290353e-02  -2.1966428880307372e-02  -1.5442006124692503e-01  -1.5473214448267791e-01  -3.0851667531280359e-02  2.5999026124738863e-02  -2.5477549550069345e-01  -6.8753613943313072e-02  2.5290268760357498e-01  -2.5289628162370431e-01  -2.2513952040860133e-01  -2.5167039829884258e-01  -2.2351437110401667e-01  8.3850216248600062e-02  8.2045341414566028e-02  -7.3382810770754772e-02  2.0784451549608923e-01  -2.9585222417028413e-02  -2.8421602206489809e-02  -2.4836422287815016e-01  -2.0478745532081605e-01  2.9536286857585262e-02  2.4342992896348267e-01  2.4100176699286508e-02  -2.4706238295404767e-01  -2.4630873482697146e-01  2.0956458356154109e-01  -9.4453161518067402e-02  2.2537250061693972e-01  -4.8215749489840760e-02  -4.9297266196488276e-02  -5.0132130374034502e-02  1.7714940086771751e-02  -2.2692686859878561e-01  -1.7940037991506858e-01  -1.8777415594396957e-01  2.6556272447150414e-01  3.6715224516298439e-02  2.6662827493890262e-01  1.3209280254693573e-01  1.3202760783457390e-01  1.7476902796174168e-01  2.1325942990573385e-01  2.1342820822211511e-01  2.1416834221210942e-01  2.1039780604746344e-01  -8.9456181121168321e-03  -1.8450573783611663e-02  1.3161063536791906e-01  1.3158067656494649e-01  1.2394038937678911e-01  4.9383781578389366e-02  5.8717345632613535e-02  -3.3660719197504818e-01  1.4538590531579999e-02  1.0945348446761094e-01  2.1451095507765325e-01  1.3069912762573827e-01  -4.1474965796640978e-02  -6.8421881567320486e-02  -1.7457202209077749e-01  2.2722489952064012e-01  2.2643884513419565e-01  -2.2130564977480136e-01  -1.5467603961095161e-01  1.5737741398542052e-01  1.3354019237809808e-01  1.6187018783184218e-01  -1.8721725545470511e-01  -2.2194657779406735e-01  -1.7867394436928474e-01  2.5446902402452037e-01  2.2611482390847185e-01  2.4673204222716597e-01  -1.7658495583523389e-02  -1.5958972624334342e-01  -1.5132086764632313e-01  -1.6027288511152518e-01  -2.0626003281486813e-01  -1.9204659294759582e-01  1.3299484628196237e-01  1.6195686567701331e-01  -1.3288238336349842e-01  -1.3401402047295075e-01  1.5880503133567073e-01  1.5066240414953519e-01  1.5863192887124392e-01  1.5067409329894227e-01  -8.4878430964502025e-02  1.3376445143959578e-02  1.5795204238338643e-03  3.3769883140931926e-02  1.6236466361436653e-02  3.9169957323641147e-02  1.3616558702152515e-01  -3.4441359437012244e-02  -2.2443137392942505e-01  -1.7297391923781916e-01  -1.6771846347447836e-01  -1.6828165816920859e-01  2.6890677688670622e-02  3.7648698279155360e-02  1.6694584064221857e-01  -1.7100739560767683e-01  -1.6997300550252906e-01  1.7135957367464469e-01  1.3474775902212469e-01  -1.6384698391449481e-01  1.6614249784461838e-01  -1.5141531672242381e-01  -1.6059996388015382e-01  -3.8024601639561603e-02  -1.3859942158933669e-01  -2.6491252809712551e-01  -2.4940088674503735e-01  -2.2212061429110316e-01  -2.0414459873894372e-01  1.6806196990784400e-01  1.6848711112730516e-01  -3.1336223795718814e-02  3.5230665415696097e-02  -2.0365133152468459e-01  -3.7003216455006580e-02  -3.6942129340845113e-02  1.3652574057932820e-01  -1.9240301144635438e-01  -1.6665224507677684e-01  -1.3816857528630208e-01  -1.4621114610707070e-01  -1.1877330561624679e-01  -1.2862387978243803e-01  7.1361920498255339e-03  3.4484353107544573e-02  -2.6565154893183621e-02  5.7081741185575291e-03  5.4630623677002447e-03  -2.6590493655878188e-02  -7.6829521304577666e-02  -2.8050229670678991e-02  -2.8810016975387220e-01  -2.2831405911264133e-01  -1.5959474855938094e-01  1.8210059147855459e-01  2.0812157185595967e-01  4.1575941493321328e-01  1.8274513802835965e-01  2.0901186029127422e-01  4.0018037753533225e-01  5.6004760186573960e-03  -4.0036051784976417e-01  -4.0126330371821578e-01  2.6679473972354845e-02  2.2467942158386786e-01  2.4844101903852316e-02  4.4551740281285911e-02  -1.9266543691875287e-01  -2.0547488496756225e-01  -3.3167396285179035e-01  2.0558911891318329e-01  3.3629451190030808e-02  1.7616685563911016e-01  2.6041757547584737e-02  2.1204097233577135e-01  3.7281769238350171e-01  -1.3679424400139675e-01  -1.3554139741377683e-01  2.2741197407952113e-01  -1.2964347265241055e-01  -1.3012171735324959e-01  -1.2709311078548363e-01  3.7136463883227694e-01  1.2888298602948847e-01  2.2738432545491979e-01  1.7677570182872743e-01  -4.1001355901421142e-02  -2.5531399872414451e-01  -3.3061386884281979e-01  1.2905821202493922e-01  3.4286386625592476e-02  -3.6685400022820102e-03  -1.9474324339218316e-01  3.0443306725161368e-01  -2.6622708730318904e-02  1.7171056447473057e-01  1.3732601795147015e-01  1.8223930970414909e-01  3.0033039672956557e-01  8.1460711421679946e-02  -1.9265327094162918e-01  2.0316659893334006e-04  6.6340457341079358e-03  2.0639304000566763e-01  6.0213613287622789e-03  2.1893722625357870e-01  1.3905740056786778e-02  -6.2422036796708907e-02  -7.6103949092435466e-02  -4.6069497494048255e-02  -1.8521016223602579e-01  1.0580000042949164e-02  3.4033634159859150e-01  -3.6329381356614075e-03  -3.5901764164300864e-01  -1.0124449937081904e-02  -1.1135821710050525e-01  -2.0050555241981793e-01  -1.6281070318825813e-01  -2.5680690925478922e-02  3.7036649077168549e-01  4.8046421980467782e-03  4.0621658275799687e-02  3.6946018141028597e-01  -3.7335559203545998e-01  -3.6971574322696160e-01  1.7823666188761605e-01  1.7825501457836873e-01  -2.2284798113006601e-01  -1.3721121184581481e-01  -1.3449543942370343e-01  -1.1054103288859833e-01  -1.3768501850064552e-01  -1.0954525960367430e-01  -1.1295645033679959e-01  -1.3956220954922230e-01  -8.7681116538207357e-02  -1.0796685158554080e-01  -1.0714349784550582e-01  1.0799972356942099e-01  1.6481366468203987e-01  -1.0126010425190553e-01  -1.1270132651095843e-01  1.0817687999250951e-01  1.0965563777462858e-01  1.6777776763419208e-01  1.3800009279693715e-01  -1.7485067836661805e-01  2.2274700151130331e-01  -3.2474497185215792e-02  -2.5907453652781316e-02  4.1849386101427029e-02  -1.2689876860376187e-01  4.1859799694629440e-02  1.0733212795277811e-01  1.0881254339020814e-01  -1.2534726617859820e-01  -1.2471768230977100e-01  1.2570125840529425e-01  1.6743931319301211e-01  1.3598384420505294e-01  2.4824775003361951e-01  -2.1276438315599686e-04  1.2872358422760397e-01  1.2888580901372271e-01  2.2514881293461017e-01  1.5904315143677461e-01  8.4988474099521247e-02  -2.0742602112864328e-01  -1.5858691451543389e-01  -8.4555731246506352e-02  -1.5679437032139681e-01  -8.3202961008121593e-02  -2.3173992336985530e-01  -2.0617203444875717e-01  -1.1493804038700017e-01  -3.2727798780241935e-01  8.4793062164327582e-02  6.3515143893177972e-02  -1.5090832553392047e-01  -1.1462854395847331e-01  -1.3192829972751421e-01  1.3821832325731004e-01  1.4159120989980800e-01  -1.3224579407763873e-01  -4.3142935374734293e-01  2.5153594989896289e-01  1.3871863804940268e-01  1.4231460843321075e-01  1.3114474