<?xml version="1.0"?>
<VTKFile type="UnstructuredGrid"  version="0.1"  >
<UnstructuredGrid>
<Piece  NumberOfPoints="1945" NumberOfCells="3760">
<Points>
<DataArray  type="Float64"  NumberOfComponents="3"  format="ascii">3.325878449210181 2.222280932078409 0  2.222280932078409 3.32587844921018 0  1.944495815568608 2.910143643058908 0  2.910143643058908 1.944495815568608 0  -2.222280932078409 3.325878449210181 0  -3.32587844921018 2.222280932078409 0  -2.910143643058908 1.944495815568608 0  -1.944495815568607 2.910143643058908 0  -3.325878449210181 -2.222280932078408 0  -2.22228093207841 -3.32587844921018 0  -1.944495815568609 -2.910143643058908 0  -2.910143643058909 -1.944495815568607 0  2.222280932078408 -3.325878449210181 0  3.32587844921018 -2.22228093207841 0  2.910143643058908 -1.944495815568609 0  1.944495815568607 -2.910143643058909 0  6 0 0  3.673940397442059e-16 6 0  -1.102182119232618e-15 -6 0  -6 7.347880794884119e-16 0  3.173413361164942 2.435045716034881 0  3.007359229915911 2.637383260400274 0  2.828427124746191 2.82842712474619 0  2.637383260400276 3.007359229915909 0  2.435045716034884 3.17341336116494 0  2.083388373823509 3.118011046134545 0  2.166828822584419 2.748609258082607 0  2.375802609365295 2.5701287830249 0  2.5701287830249 2.375802609365296 0  2.748609258082609 2.166828822584418 0  3.118011046134544 2.083388373823508 0  -2.435045716034882 3.173413361164941 0  -2.637383260400274 3.007359229915911 0  -2.82842712474619 2.828427124746191 0  -3.007359229915908 2.637383260400278 0  -3.17341336116494 2.435045716034884 0  -3.118011046134545 2.083388373823509 0  -2.748609258082607 2.166828822584419 0  -2.5701287830249 2.375802609365296 0  -2.375802609365296 2.5701287830249 0  -2.166828822584418 2.748609258082609 0  -2.083388373823508 3.118011046134544 0  -3.173413361164941 -2.435045716034882 0  -3.00735922991591 -2.637383260400275 0  -2.828427124746191 -2.828427124746189 0  -2.637383260400277 -3.007359229915908 0  -2.435045716034884 -3.17341336116494 0  -2.083388373823509 -3.118011046134544 0  -2.166828822584418 -2.748609258082608 0  -2.375802609365296 -2.5701287830249 0  -2.5701287830249 -2.375802609365296 0  -2.748609258082608 -2.166828822584419 0  -3.118011046134545 -2.083388373823508 0  2.435045716034881 -3.173413361164942 0  2.637383260400275 -3.00735922991591 0  2.82842712474619 -2.82842712474619 0  3.00735922991591 -2.637383260400274 0  3.173413361164941 -2.435045716034882 0  3.118011046134544 -2.083388373823509 0  2.748609258082607 -2.166828822584419 0  2.570128783024899 -2.375802609365297 0  2.375802609365296 -2.5701287830249 0  2.16682882258442 -2.748609258082607 0  2.083388373823508 -3.118011046134545 0  5.992772737231034 0.2944060459645064 0  5.971108360033181 0.5881028419773635 0  5.935059059788686 0.8803828467321695 0  5.884711682419383 1.17054193209677 0  5.820187519167264 1.457881079419583 0  5.741642014393253 1.741708063526773 0  5.649264391098125 2.02133912035332 0  5.54327719506772 2.296100594190538 0  5.423935758740661 2.565330560581691 0  5.291527586090131 2.828380420955986 0  5.146371660001632 3.084616465159329 0  4.988817673815273 3.333421398117612 0  4.81924518888387 3.574195826954599 0  4.473226266401406 3.994319656851617 0  3.397293390964815 5.274915979131093 0  4.242640687119286 4.242640687119285 0  3.890461170827212 4.653574155205389 0  2.841654746105005 5.949527640383828 0  2.181048763444736 5.661704181387421 0  3.125553995041976 5.127710232070172 0  1.956984168674178 6.320697551115282 0  2.65160372565935 5.468304281386766 0  2.565330560581695 5.423935758740659 0  2.296100594190542 5.543277195067719 0  2.02133912035332 5.649264391098125 0  1.741708063526774 5.741642014393253 0  1.457881079419585 5.820187519167264 0  1.170541932096772 5.884711682419382 0  0.8803828467321739 5.935059059788685 0  0.5881028419773627 5.971108360033181 0  0.2944060459645081 5.992772737231034 0  0.2944060459645067 -5.992772737231034 0  0.5881028419773613 -5.971108360033181 0  0.8803828467321685 -5.935059059788686 0  1.170541932096767 -5.884711682419383 0  1.457881079419579 -5.820187519167265 0  1.741708063526771 -5.741642014393254 0  2.021339120353316 -5.649264391098126 0  2.296100594190533 -5.543277195067724 0  2.565330560581686 -5.423935758740662 0  2.828380420955979 -5.291527586090133 0  3.084616465159323 -5.146371660001637 0  3.333421398117605 -4.988817673815277 0  3.574195826954591 -4.819245188883876 0  3.806359704981865 -4.638062720176428 0  4.029353729082103 -4.445706752129762 0  4.242640687119277 -4.242640687119294 0  4.445706752129746 -4.02935372908212 0  4.638062720176414 -3.806359704981881 0  4.819245188883862 -3.574195826954609 0  4.988817673815266 -3.333421398117622 0  5.146371660001628 -3.084616465159337 0  5.291527586090127 -2.828380420955992 0  5.423935758740658 -2.565330560581697 0  5.543277195067718 -2.296100594190544 0  5.649264391098123 -2.021339120353324 0  5.741642014393252 -1.741708063526779 0  5.820187519167263 -1.457881079419587 0  5.884711682419383 -1.170541932096771 0  5.935059059788686 -0.8803828467321708 0  5.971108360033181 -0.5881028419773651 0  5.992772737231034 -0.2944060459645078 0  -0.294406045964506 5.992772737231034 0  -0.5881028419773605 5.971108360033181 0  -0.8803828467321717 5.935059059788685 0  -1.17054193209677 5.884711682419383 0  -1.457881079419582 5.820187519167264 0  -1.741708063526773 5.741642014393253 0  -2.021339120353318 5.649264391098125 0  -2.29610059419054 5.54327719506772 0  -2.565330560581693 5.42393575874066 0  -2.828380420955986 5.291527586090131 0  -3.084616465159328 5.146371660001633 0  -3.333421398117611 4.988817673815273 0  -3.574195826954597 4.819245188883872 0  -3.806359704981873 4.638062720176421 0  -4.02935372908211 4.445706752129755 0  -4.242640687119285 4.242640687119286 0  -4.445706752129753 4.029353729082112 0  -4.63806272017642 3.806359704981876 0  -4.819245188883871 3.574195826954599 0  -4.988817673815271 3.333421398117613 0  -5.146371660001632 3.084616465159331 0  -5.29152758609013 2.828380420955988 0  -5.423935758740659 2.565330560581695 0  -5.543277195067719 2.296100594190542 0  -5.649264391098125 2.02133912035332 0  -5.741642014393253 1.741708063526775 0  -5.820187519167264 1.457881079419585 0  -5.884711682419382 1.170541932096772 0  -5.935059059788685 0.8803828467321744 0  -5.971108360033181 0.5881028419773631 0  -5.992772737231034 0.2944060459645085 0  -5.992772737231034 -0.2944060459645075 0  -5.971108360033181 -0.5881028419773624 0  -5.935059059788686 -0.8803828467321688 0  -5.884711682419383 -1.170541932096767 0  -5.820187519167265 -1.457881079419581 0  -5.741642014393254 -1.741708063526771 0  -5.649264391098126 -2.021339120353317 0  -5.543277195067722 -2.296100594190535 0  -5.423935758740662 -2.565330560581688 0  -5.291527586090133 -2.82838042095598 0  -5.146371660001636 -3.084616465159324 0  -4.988817673815276 -3.333421398117608 0  -4.819245188883873 -3.574195826954594 0  -4.638062720176427 -3.806359704981867 0  -4.445706752129761 -4.029353729082104 0  -4.242640687119291 -4.242640687119279 0  -4.029353729082119 -4.445706752129747 0  -3.80635970498188 -4.638062720176416 0  -3.574195826954607 -4.819245188883865 0  -3.333421398117619 -4.988817673815268 0  -3.084616465159336 -5.146371660001629 0  -2.82838042095599 -5.291527586090128 0  -2.565330560581696 -5.423935758740659 0  -2.296100594190541 -5.543277195067719 0  -2.021339120353323 -5.649264391098123 0  -1.741708063526776 -5.741642014393253 0  -1.457881079419584 -5.820187519167264 0  -1.17054193209677 -5.884711682419383 0  -0.8803828467321692 -5.935059059788686 0  -0.588102841977362 -5.971108360033181 0  -0.2944060459645061 -5.992772737231034 0  2.915156841980636 2.392407392152562 0  2.392407392152564 2.915156841980633 0  2.632780978595949 2.632780978595948 0  2.193352175472403 2.948725006331014 0  2.948725006331014 2.193352175472401 0  2.806253581863684 2.570325696459986 0  2.570325696459987 2.806253581863683 0  -2.392407392152563 2.915156841980636 0  -2.915156841980633 2.392407392152565 0  -2.632780978595948 2.632780978595949 0  -2.948725006331014 2.193352175472403 0  -2.193352175472402 2.948725006331014 0  -2.570325696459986 2.806253581863684 0  -2.806253581863683 2.570325696459987 0  -2.392407392152564 -2.915156841980633 0  -2.915156841980635 -2.392407392152562 0  -2.632780978595949 -2.632780978595948 0  -2.193352175472404 -2.948725006331014 0  -2.948725006331014 -2.193352175472401 0  -2.570325696459987 -2.806253581863683 0  -2.806253581863684 -2.570325696459986 0  2.915156841980636 -2.392407392152562 0  2.392407392152562 -2.915156841980635 0  2.632780978595948 -2.632780978595949 0  2.193352175472401 -2.948725006331014 0  2.948725006331013 -2.193352175472401 0  2.806253581863683 -2.570325696459987 0  2.570325696459986 -2.806253581863684 0  1.925572322694977 2.639134625171056 0  -1.92232616923692 -2.645287183878194 0  2.64712409774355 -1.922155627516517 0  -2.648274943387382 1.923384087579763 0  2.787488962107224 -1.70941019206243 0  2.542925862726263 -1.688489328276631 0  -2.789103548075794 1.710945081734277 0  -2.545130264192913 1.690760146552866 0  -1.710957449679152 -2.796228356974146 0  -1.687026159560195 -2.537366256462976 0  1.696277503281115 2.804183418317023 0  1.682021434129873 2.528522578904899 0  0.1461801294631497 -5.744762652997465 0  5.738041777059731 0.1212139300521339 0  -0.1507639746302462 5.753390243880809 0  -5.74833899732751 -0.1653304082660088 0  2.690457541353841 -1.484513769064787 0  2.441267741892439 -1.459166490790358 0  -2.692991208121424 1.487088013477411 0  -2.444869468445 1.462608422096474 0  -1.475970410916221 -2.689097231831853 0  -1.450059279949902 -2.430834284585079 0  1.451463094369326 2.696629502999064 0  1.427672345987618 2.4275231842402 0  -2.592343774301277 1.25849909164082 0  -2.342247848901301 1.232475341883488 0  2.58883818248634 -1.254798802702198 0  2.33767881708085 -1.228229843487766 0  3.129462775028485 1.839103806469651 0  -3.13460308779227 -1.833423244468993 0  1.833568907354139 -3.134221719802569 0  1.6933
[...]
<PointData  Scalars="f_25"> 
<DataArray  type="Float64"  Name="f_25"  format="ascii">-8.5392212887981311e-01  8.6980368389764995e-01  7.6205169861015631e-01  -7.4608533437928004e-01  8.5888040185029901e-01  -8.6484650767930682e-01  -7.5708536157581852e-01  7.5112421355180126e-01  -8.6238806103089927e-01  8.6134771763561890e-01  7.5358187609694571e-01  -7.5463474153361432e-01  8.6039955142154401e-01  -8.6333554557036896e-01  -7.5557593244262478e-01  7.5264666837114036e-01  0.0000000000000000e+00  0.0000000000000000e+00  0.0000000000000000e+00  0.0000000000000000e+00  -5.6870752345007469e-01  -2.8099364488656875e-01  7.9555423044080781e-03  2.9690939079106932e-01  5.8463490946989793e-01  8.1609917023528489e-01  4.6228509931606115e-01  1.5970189070520088e-01  -1.4379854178556503e-01  -4.4639393433294755e-01  -8.0018219838636473e-01  5.7367286283672592e-01  2.8596020608556710e-01  -2.9838159328135255e-03  -2.9192770339170132e-01  -5.7964019331814010e-01  -8.1112475351401436e-01  -4.5730959995242437e-01  -1.5472940997662227e-01  1.4876092089899023e-01  4.5133963047155484e-01  8.0515851441449648e-01  -5.7717981491402859e-01  -2.8946617668229407e-01  -5.2098609274459410e-04  2.8842452533352086e-01  5.7613800673436788e-01  8.0762355746593661e-01  4.5380689227163651e-01  1.5122556432318651e-01  -1.5226652753192321e-01  -4.5484712163932967e-01  -8.0866673151449953e-01  5.7519138429804151e-01  2.8747726568264564e-01  -1.4683434258047129e-03  -2.9041372220940742e-01  -5.7812748215881105e-01  -8.0961347066046496e-01  -4.5579738695434113e-01  -1.5321523837974688e-01  1.5027761676938250e-01  4.5285802622988858e-01  8.0667813848016290e-01  0.0000000000000000e+00  0.0000000000000000e+00  0.0000000000000000e+00  0.0000000000000000e+00  0.0000000000000000e+00  0.0000000000000000e+00  0.0000000000000000e+00  0.0000000000000000e+00  0.0000000000000000e+00  0.0000000000000000e+00  0.0000000000000000e+00  0.0000000000000000e+00  0.0000000000000000e+00  0.0000000000000000e+00  0.0000000000000000e+00  0.0000000000000000e+00  0.0000000000000000e+00  0.0000000000000000e+00  0.0000000000000000e+00  0.0000000000000000e+00  0.0000000000000000e+00  0.0000000000000000e+00  0.0000000000000000e+00  0.0000000000000000e+00  0.0000000000000000e+00  0.0000000000000000e+00  0.0000000000000000e+00  0.0000000000000000e+00  0.0000000000000000e+00  0.0000000000000000e+00  0.0000000000000000e+00  0.0000000000000000e+00  0.0000000000000000e+00  0.0000000000000000e+00  0.0000000000000000e+00  0.0000000000000000e+00  0.0000000000000000e+00  0.0000000000000000e+00  0.0000000000000000e+00  0.0000000000000000e+00  0.0000000000000000e+00  0.0000000000000000e+00  0.0000000000000000e+00  0.0000000000000000e+00  0.0000000000000000e+00  0.0000000000000000e+00  0.0000000000000000e+00  0.0000000000000000e+00  0.0000000000000000e+00  0.0000000000000000e+00  0.0000000000000000e+00  0.0000000000000000e+00  0.0000000000000000e+00  0.0000000000000000e+00  0.0000000000000000e+00  0.0000000000000000e+00  0.0000000000000000e+00  0.0000000000000000e+00  0.0000000000000000e+00  0.0000000000000000e+00  0.0000000000000000e+00  0.0000000000000000e+00  0.0000000000000000e+00  0.0000000000000000e+00  0.0000000000000000e+00  0.0000000000000000e+00  0.0000000000000000e+00  0.0000000000000000e+00  0.0000000000000000e+00  0.0000000000000000e+00  0.0000000000000000e+00  0.0000000000000000e+00  0.0000000000000000e+00  0.0000000000000000e+00  0.0000000000000000e+00  0.0000000000000000e+00  0.0000000000000000e+00  0.0000000000000000e+00  0.0000000000000000e+00  0.0000000000000000e+00  0.0000000000000000e+00  0.0000000000000000e+00  0.0000000000000000e+00  0.0000000000000000e+00  0.0000000000000000e+00  0.0000000000000000e+00  0.0000000000000000e+00  0.0000000000000000e+00  0.0000000000000000e+00  0.0000000000000000e+00  0.0000000000000000e+00  0.0000000000000000e+00  0.0000000000000000e+00  0.0000000000000000e+00  0.0000000000000000e+00  0.0000000000000000e+00  0.0000000000000000e+00  0.0000000000000000e+00  0.0000000000000000e+00  0.0000000000000000e+00  0.0000000000000000e+00  0.0000000000000000e+00  0.0000000000000000e+00  0.0000000000000000e+00  0.0000000000000000e+00  0.0000000000000000e+00  0.0000000000000000e+00  0.0000000000000000e+00  0.0000000000000000e+00  0.0000000000000000e+00  0.0000000000000000e+00  0.0000000000000000e+00  0.0000000000000000e+00  0.0000000000000000e+00  0.0000000000000000e+00  0.0000000000000000e+00  0.0000000000000000e+00  0.0000000000000000e+00  0.0000000000000000e+00  0.0000000000000000e+00  0.0000000000000000e+00  0.0000000000000000e+00  0.0000000000000000e+00  0.0000000000000000e+00  -4.0031003167112583e-01  4.1622357520769537e-01  7.9544856256729100e-03  5.9791449691064957e-01  -5.8199826634226892e-01  -1.7630235775070416e-01  1.9221378427790436e-01  4.0527624527173262e-01  -4.1124396836619093e-01  -2.9840039773657407e-03  -5.9293820061829172e-01  5.8697118516460756e-01  1.8127033146225274e-01  -1.8723814987912205e-01  4.0774102116219896e-01  -4.0878297119981727e-01  -5.2073382263065381e-04  5.8943581209038720e-01  -5.9047901445428430e-01  1.8373429317868739e-01  -1.8477594793370089e-01  -4.0973088116055700e-01  4.0679414395872399e-01  -1.4685362216666478e-03  5.8849030452358853e-01  -5.9142632789880145e-01  -1.8572374796735996e-01  1.8278689647023483e-01  4.2535671510226752e-01  4.2260530698693588e-01  -4.2588927718072478e-01  -4.2900613485918704e-01  -4.4645069739520388e-01  -2.9657984751015737e-01  -4.5014176463588018e-01  -2.9921182636669053e-01  4.5381847177614387e-01  2.9199686363599220e-01  4.5400769638398825e-01  2.8992461918503543e-01  2.4132186894594815e-02  -2.5419562523229303e-02  2.2290932693123145e-02  -2.3936595167446208e-02  -3.1471802900296303e-01  -2.2724089246107257e-01  -3.1664303777189290e-01  -2.2887309318137702e-01  3.0997819062022197e-01  2.2045794768743851e-01  3.0343973470513241e-01  2.1495988805272073e-01  -2.4555379660062340e-01  -1.8568853410491151e-01  -2.4460774626966961e-01  -1.8487327558071798e-01  -5.9534718676827558e-01  -5.8577074813257612e-01  5.8404272533163304e-01  4.7945030335367356e-01  5.8334364825670815e-01  4.8118420897177905e-01  4.2774571994923410e-01  4.2745037221968646e-01  -4.8166796408331719e-01  -4.2987430850752878e-01  -2.9981051122228497e-01  -2.9894405050173667e-01  -4.9485709415022061e-01  -4.4346327146115799e-01  3.5506685435005952e-01  3.3564853428254238e-01  3.5554497435922305e-01  3.3469297754509075e-01  2.7135524203132824e-02  2.3852664298739886e-02  -3.5778785206811392e-01  -3.3805033471962420e-01  -3.7127546776427850e-01  -3.4998143760106160e-01  2.8819445455119785e-01  2.7909040229052029e-01  2.8736404966817164e-01  2.7714879732710634e-01  -2.8919058202696815e-02  -2.8899746271353416e-02  -2.9111769059868176e-01  -2.8165429118017615e-01  -3.0125036442854047e-01  -2.9119414296085999e-01  6.1932041060503829e-01  5.7657527720248103e-01  2.4702680149146283e-01  2.4301490064166678e-01  2.3885014289595488e-01  2.4514775790397239e-01  2.4012070735021773e-01  2.3762934991451623e-01  2.1355894388858748e-01  1.9491859600975964e-01  2.6017855670291806e-01  2.3151858948786602e-01  2.5702634147777426e-01  2.2752685549407620e-01  -2.4998793865389096e-01  -2.4561960177396813e-01  -2.4215629820167436e-01  -2.6254015800951630e-01  -2.3380711652368744e-01  -2.5813681126033361e-01  -2.5323439815987542e-01  -2.5071962263770486e-01  -2.7124399809808586e-01  -2.4069800085732435e-01  2.1140162570171545e-01  1.9312277854360579e-01  1.8215177985571565e-01  1.5891324841209475e-01  1.7964651591189443e-01  1.5614445371861138e-01  1.5416158619172210e-01  1.2965907684378661e-01  1.2925594269175159e-01  1.0422470744498874e-01  1.0657334025158006e-01  8.2316664343433626e-02  8.5502472881030259e-02  6.3321495636929723e-02  6.5589835145062642e-02  4.6324332083557171e-02  4.6662624324386698e-02  3.0778158961662493e-02  2.8657466529711299e-02  1.7219431422263107e-02  1.6712895252965768e-02  7.4942052513398026e-03  6.5588666472861518e-03  8.8485973005531036e-04  -1.5285351233829544e-03  4.3174683651646768e-03  -3.1912529705983104e-03  -7.1438303253960360e-03  -4.7635100656536079e-03  -3.2099936394155721e-03  -1.0006419639181335e-02  -3.4926089838394651e-03  -1.0317031724985059e-02  2.8594201741520878e-04  -9.0381477262420091e-03  -2.2103970886548332e-02  -2.1689738762146185e-01  -1.9871185791500248e-01  -2.2357956491994616e-01  -2.3911506962518783e-01  -2.1787789532499488e-01  -2.4678560516307957e-01  -2.2396778262895084e-01  2.3693151047279093e-01  2.1574501192657244e-01  2.3261445069328057e-01  2.1058911407734862e-01  1.5118923443497259e-01  1.2635592744743962e-01  -7.1410582673009032e-03  -3.2201559725433919e-02  -3.1420952518819087e-02  6.3090892205943617e-03  -1.8590470058460679e-01  1.7440724074191227e-01  1.7119170572519035e-01  -1.6267919142835813e-01  3.2959206940923698e-02  2.3458684345395730e-02  -4.5808695538785606e-03  -3.3983837260774856e-02  -3.5265850123902265e-02  3.2397820847393961e-02  3.0460350423855226e-02  -2.1416719152149333e-01  -1.9960176033163857e-01  -2.2067333142388279e-01  -2.0480306453618427e-01  -1.5842638203502798e-01  2.1207286830100180e-01  1.9754067404756639e-01  2.0309100217898077e-01  1.8931102614281098e-01  2.0675008711806900e-01  1.9128995182211461e-01  1.9685198769603690e-01  1.8184124532501492e-01  7.9917094509914285e-02  -2.4342154501955707e-01  -2.7489674921705615e-01  5.3953107269561118e-01  4.4891245946747110e-01  4.5601470925838750e-01  3.9005051985183081e-01  -1.7897191404693474e-01  1.9774663842331144e-01  1.8687180861296240e-01  1.4840869078911548e-01  -2.0520546819468621e-01  -1.9133877586194473e-01  2.2925471080253937e-01  2.3386044743206430e-01  -2.4424150855216772e-01  -2.3593093828946016e-01  1.9012490545920291e-01  1.7774795833563445e-01  1.2862038541493462e-02  -1.3359941873840409e-01  -1.3516811814423266e-01  1.5634011975045683e-02  -2.0511520423075424e-01  -1.9115279352240699e-01  -1.3197794066002932e-01  -1.5039358777279518e-01  -1.3063246709184270e-01  -5.3407857381771184e-01  -5.3901218231191017e-01  5.3241315637710374e-01  5.3167080782105980e-01  -5.0477106895224366e-01  -5.5773361879054451e-01  -5.4103145713367540e-01  -5.3735678748423155e-01  5.3599801884067033e-01  5.3316490665848115e-01  -5.3705638644641052e-01  -5.3750489300159132e-01  -2.0357966311056175e-01  -2.1006280474377761e-01  -1.4933616568587346e-01  -1.2997600591970943e-01  2.0129581746649916e-01  1.0277250629763730e-01  1.7025897471373666e-01  1.9596631341160572e-01  2.9493967779817532e-03  2.3825447357699459e-01  3.7937637144214104e-01  3.4069239278458652e-01  3.8409569413210332e-01  3.1543011277111827e-01  2.8953426408627675e-01  3.2324389659373742e-01  -2.3504843679416129e-01  -2.5247621632176026e-01  2.1590699801040239e-01  -5.9268260386841501e-03  5.4343864310485226e-03  2.2050177175395771e-01  -2.3113557971458559e-01  -2.2255230731437350e-01  1.8970757246213396e-01  1.7852549628755351e-01  -1.9979099343566553e-01  -1.8880916000094047e-01  1.9911807956201669e-01  1.8986941405986171e-01  1.6355034984272734e-01  -1.0965065619728849e-01  -1.1312637897381037e-01  -2.4353104120376692e-01  -8.9456956106497940e-02  -8.4855549237518327e-02  -1.0657598466752774e-01  1.0305987840089653e-01  1.6352378477629079e-02  -1.4026595630231804e-02  1.7207959357702393e-01  1.7554599728555581e-01  -2.7481793175034197e-01  -1.7463506537435639e-01  -1.7404403473619900e-01  1.6529817292013760e-01  -3.6113774293594592e-01  -3.4897843357502323e-01  -4.1091957849886496e-01  -3.6121717563015698e-01  -3.4956187606563788e-01  1.6161153666365491e-01  1.6251174911475064e-01  6.4954988871091066e-02  2.3032563644635454e-01  1.6738388981333335e-01  -3.5916177792556392e-01  -3.4532831962339822e-01  -3.6198374787495646e-01  -3.6656199058375216e-01  3.5679355881050806e-01  3.4287986122898195e-01  3.5566210221357325e-01  3.4269179545512640e-01  -4.1166772360904486e-01  -1.8521725048388477e-01  -1.9167745071110887e-01  -1.6743422732153612e-01  -1.6221321270252612e-01  1.8313262450766518e-01  1.7802448210235294e-01  2.1584457371142472e-02  2.1381229968102749e-02  -2.2551426434287064e-01  -2.3390233629773624e-01  2.8556451303174701e-02  2.9149085690139115e-01  2.9269144277204862e-01  2.3689573978130654e-01  2.3654455625565560e-01  2.7990626891017450e-01  1.6742572841536293e-01  -3.0301680256207825e-01  -3.2940899356492181e-01  -3.0132592150293869e-01  -3.2863098666624557e-01  -1.7210599413500083e-01  -8.8280967257016604e-02  -9.1196786248710610e-02  1.4814001711890837e-01  -2.3430600208152877e-01  -2.0781723586860057e-01  1.4135036222072755e-01  -8.8415574279029477e-02  -8.4287111977297616e-02  -2.5538897311510783e-01  -2.6923064509339417e-01  -2.1440434500778732e-01  -2.2399695306057726e-01  -2.5400959836780895e-01  -2.6831036947743758e-01  -2.1347582982462041e-01  -1.1597790879159366e-01  -7.9944086416321655e-02  -1.0536716466976991e-01  -1.9921486504935024e-01  -2.0763001295327538e-01  -4.4463080974369983e-02  -4.8957164640027841e-02  1.5350377147852481e-01  1.5638222370908134e-01  1.9729264013951328e-01  1.4214659501319465e-01  1.4225835922309205e-01  -1.1354171257809224e-01  1.9277613709068711e-01  -1.3666200010308624e-01  -1.9148243997887388e-01  -6.8698614268670452e-02  -6.4491120139229113e-02  -2.2114597101854223e-02  -1.5527325715430168e-01  -1.5563433962238765e-01  -3.4100574869665536e-02  2.5556008268048932e-02  -2.5631751690763849e-01  -7.1470687923357146e-02  2.5223106937150208e-01  -2.5340508837913078e-01  -2.2566501704436889e-01  -2.6480560301926653e-01  -2.1450644955215828e-01  8.2145255166242936e-02  8.0275827155161766e-02  -7.5545609436422217e-02  2.0710832880655786e-01  -2.9699769790541179e-02  -2.9136517298792200e-02  -2.4957395200655175e-01  -2.0695077442650850e-01  2.9442818068417666e-02  2.4281049364084212e-01  2.3150226998067888e-02  -2.4754449457543135e-01  -2.6493305350012453e-01  1.9526744372307428e-01  -9.6668007174271903e-02  2.2466721157750616e-01  -5.0347595197329190e-02  -5.2042921377956734e-02  -5.3016145552781467e-02  1.4535314418964985e-02  -2.2855971049589846e-01  -1.8076150810476713e-01  -1.8934661030976041e-01  2.6507482845920782e-01  3.6173198124921438e-02  2.2439476131981181e-01  1.3168320110488946e-01  1.3159382291171437e-01  1.6834058458528117e-01  2.1171406467371470e-01  2.1303065223881176e-01  1.6789130399136207e-01  2.0954580642828266e-01  -1.2275804818199683e-02  -2.1774664930104971e-02  1.2008544914091150e-01  1.2205757707906206e-01  1.2229028042026988e-01  4.5840860483037996e-02  5.4875045458855125e-02  -3.3774622237940721e-01  1.2059212346032393e-02  1.0762642646582431e-01  2.1205151662679189e-01  1.2592469775378543e-01  -4.3310989039127668e-02  -7.0752039196186473e-02  -1.7946069972347953e-01  1.7832223166955607e-01  2.2602626376766513e-01  -2.2254315841088435e-01  -1.5766459398346028e-01  1.5139197562679158e-01  1.3315677840604354e-01  1.6142667944392172e-01  -1.8936430507574259e-01  -2.2323871584535529e-01  -1.7970866429579196e-01  2.5129469915458591e-01  2.2337427115627001e-01  2.4333532291041382e-01  -2.0666076443833798e-02  -1.6010203289750033e-01  -1.5188203074353185e-01  -1.6617617392661954e-01  -2.1006721572803044e-01  -1.9554253165930308e-01  1.1888919660548641e-01  1.4360245799815194e-01  -1.3361506503829668e-01  -1.3478530904690636e-01  1.5831047027153125e-01  1.5016891556001516e-01  1.5414345035506533e-01  1.4559103165754606e-01  -8.7264709515302574e-02  9.9680369915897127e-03  -1.8211856098496312e-03  3.0239859817074756e-02  1.2751380689877159e-02  3.5549295222043517e-02  1.3580806519760907e-01  -3.7340506745216683e-02  -2.2847467068959659e-01  -1.7421828522987184e-01  -1.6818435450382246e-01  -1.7578494329093577e-01  2.5037283708278263e-02  3.5719864595285374e-02  1.6645547027288549e-01  -1.7141065516143003e-01  -1.7284729223865730e-01  1.7081786121141770e-01  1.1737573599348165e-01  -1.6020058700660772e-01  1.6218375036739890e-01  -1.5276812779052304e-01  -1.6220657436518621e-01  -3.8236121840814534e-02  -1.3989453000889088e-01  -2.6647929332996473e-01  -2.5156600420811653e-01  -2.2421360101463919e-01  -2.0642796346544989e-01  1.6773822508081346e-01  1.2483700563192854e-01  -3.3049341541045850e-02  3.5126794734682228e-02  -2.0567999068014037e-01  -3.7090414386239744e-02  -3.8913712483683138e-02  1.3596811150069979e-01  -1.9419238669313663e-01  -1.6853499375414921e-01  -1.3980001327844493e-01  -1.4817303923493019e-01  -1.2040656801894062e-01  -1.3063862371730409e-01  5.2531698995982520e-03  3.1160488573453847e-02  -2.6705343789971095e-02  2.0310228517592420e-02  5.3869284269599613e-03  -2.6744469520691802e-02  -7.9962678991199354e-02  -2.8202609685997772e-02  -2.8933280450358168e-01  -2.2936439778414933e-01  -1.6050425028281903e-01  1.8173147719008068e-01  2.0767388717192178e-01  4.1123852034080077e-01  1.5125678535764012e-01  1.9896010018262589e-01  3.9928017585751874e-01  3.8281570117725946e-03  -4.2612464413349210e-01  -4.0189079096247238e-01  2.6599145163570790e-02  2.2388435674638385e-01  2.1293786635182096e-02  4.0839791647919337e-02  -1.9383471194959237e-01  -2.0680821634744917e-01  -3.3275747018511598e-01  2.0463555484733509e-01  3.1822020465343888e-02  1.7582302835251973e-01  2.3815128705965409e-02  2.0005317418152646e-01  3.7221940282141780e-01  -1.3719799852307946e-01  -1.1532853528729871e-01  2.2500392323378560e-01  -1.3004194589972970e-01  -1.3520481481475483e-01  -1.3127732365768677e-01  3.2686635894902683e-01  1.2849306470620189e-01  2.1213362265061989e-01  1.3614470673618576e-01  -4.1262680787190739e-02  -2.5704523976479154e-01  -3.3321761241297049e-01  1.2552217257399553e-01  3.1212304842426014e-02  -6.4433542918395526e-03  -1.9676041683898959e-01  3.0387204198523377e-01  -2.6855353544058835e-02  1.6945443162660168e-01  1.3538379888636559e-01  1.7494618980752680e-01  2.6027955637785682e-01  7.7396158609751839e-02  -1.9506731717325784e-01  -2.3856555773943324e-03  4.1883141814544828e-03  1.9851014830612082e-01  2.6196833456586079e-03  2.1801778461201349e-01  1.0465330815558570e-02  -6.4906404254260808e-02  -7.8632638132229746e-02  -4.8507122038971603e-02  -1.8740428145782023e-01  8.1357254193426595e-03  3.3851723599868366e-01  -6.3659460077799849e-03  -3.6043977383612591e-01  -1.2100889805471537e-02  -1.1367037601232501e-01  -2.0367803695240611e-01  -1.6374190358210866e-01  -2.6054782979757402e-02  3.6715814557503618e-01  2.7374274206058797e-03  3.8598140124138001e-02  3.6829757394956975e-01  -3.8389841711783512e-01  -3.7046844467866369e-01  1.7757427713588092e-01  1.7041585149982622e-01  -2.2420502516594656e-01  -1.3800517522407549e-01  -1.3518859007282449e-01  -1.1111813036240932e-01  -1.3879386858306442e-01  -1.1050361551593667e-01  -1.1350200439511486e-01  -1.4031993825798506e-01  -8.8351806084083384e-02  -1.0826823239657608e-01  -1.0236439844203615e-01  1.0758514973057166e-01  1.5842555234239591e-01  -1.0285787580317163e-01  -1.1473021720747677e-01  1.0783602380340734e-01  1.0929594811190717e-01  1.6736520575313429e-01  1.3766935457778354e-01  -1.7723280657924503e-01  2.2206076303340133e-01  -3.4792091823307850e-02  -2.7612213345707130e-02  4.1758737483544542e-02  -1.2780707574444394e-01  2.2341833162476793e-03  9.8623307249304085e-02  1.0147749950845612e-01  -1.2564562583840011e-01  -1.3241894026266046e-01  1.2530091109992064e-01  1.4432296376899753e-01  1.1463169648070344e-01  2.4751323106230699e-01  -3.5100803281820684e-03  1.2846512433547497e-01  9.2097834346284074e-02  2.0673957843372215e-01  1.5675700444962185e-01  8.3330825046169704e-02  -2.0840522314778009e-01  -1.5910356775350790e-01  -8.4948164324306616e-02  -1.1658370976154336e-01  -3.4837890424318618e-02  -2.3363712311587784e-01  -2.0968864988970892e-01  -1.1601145431301660e-01  -3.2885067194999817e-01  8.0519416420835641e-02  5.9531055420474731e-02  -1.5179274879673535e-01  -1.1529480161318237e-01  -1.3228688803080291e-01  1.3789297698193415e-01  1.4120211665491178e-01  -1.3841128431014593e-01  -4.3364490183735005e-01  2.3190468345688739e-01  1.3145384800863946e-01  1.6681160859993455e-01  1.3