<?xml version="1.0"?>
<VTKFile type="UnstructuredGrid"  version="0.1"  >
<UnstructuredGrid>
<Piece  NumberOfPoints="14005" NumberOfCells="27628">
<Points>
<DataArray  type="Float64"  NumberOfComponents="3"  format="ascii">3.325878449210181 2.222280932078409 0  2.222280932078409 3.32587844921018 0  1.944495815568608 2.910143643058908 0  2.910143643058908 1.944495815568608 0  -2.222280932078409 3.325878449210181 0  -3.32587844921018 2.222280932078409 0  -2.910143643058908 1.944495815568608 0  -1.944495815568607 2.910143643058908 0  -3.325878449210181 -2.222280932078408 0  -2.22228093207841 -3.32587844921018 0  -1.944495815568609 -2.910143643058908 0  -2.910143643058909 -1.944495815568607 0  2.222280932078408 -3.325878449210181 0  3.32587844921018 -2.22228093207841 0  2.910143643058908 -1.944495815568609 0  1.944495815568607 -2.910143643058909 0  6 0 0  3.673940397442059e-16 6 0  -1.102182119232618e-15 -6 0  -6 7.347880794884119e-16 0  3.270339252606336 2.30323276567138 0  3.212830125922581 2.382797217969732 0  3.153385710506425 2.460926362322507 0  3.092041813450948 2.537573136654581 0  3.028835386025939 2.612691371815106 0  2.963804501419836 2.686235819388074 0  2.896988331805868 2.758162178948267 0  2.828427124746191 2.82842712474619 0  2.758162178948269 2.896988331805867 0  2.686235819388075 2.963804501419835 0  2.612691371815108 3.028835386025937 0  2.537573136654581 3.092041813450948 0  2.460926362322506 3.153385710506426 0  2.382797217969733 3.21283012592258 0  2.303232765671381 3.270339252606335 0  2.166723908776449 3.242731487979926 0  2.111166885474489 3.159584526749672 0  2.055609862172529 3.076437565519417 0  2.000052838870568 2.993290604289163 0  2.025349536629318 2.854463041357412 0  2.10460981954442 2.796536698753872 0  2.182214306505567 2.736410188638104 0  2.258101942397305 2.674130815375627 0  2.332213022832014 2.609747577091079 0  2.404489241122155 2.543311127119095 0  2.474873734152916 2.474873734152917 0  2.543311127119094 2.404489241122157 0  2.60974757709108 2.332213022832013 0  2.674130815375626 2.258101942397307 0  2.736410188638104 2.182214306505568 0  2.796536698753871 2.104609819544422 0  2.854463041357411 2.025349536629319 0  2.993290604289163 2.000052838870568 0  3.076437565519417 2.055609862172528 0  3.159584526749672 2.111166885474488 0  3.242731487979926 2.166723908776448 0  -2.30323276567138 3.270339252606336 0  -2.382797217969731 3.212830125922581 0  -2.460926362322505 3.153385710506427 0  -2.537573136654579 3.09204181345095 0  -2.612691371815107 3.028835386025938 0  -2.686235819388073 2.963804501419837 0  -2.758162178948267 2.896988331805868 0  -2.82842712474619 2.828427124746191 0  -2.896988331805867 2.758162178948269 0  -2.963804501419835 2.686235819388075 0  -3.028835386025937 2.612691371815108 0  -3.092041813450948 2.537573136654581 0  -3.153385710506426 2.460926362322506 0  -3.21283012592258 2.382797217969733 0  -3.270339252606335 2.303232765671381 0  -3.242731487979926 2.166723908776449 0  -3.159584526749672 2.111166885474489 0  -3.076437565519417 2.055609862172529 0  -2.993290604289163 2.000052838870568 0  -2.854463041357411 2.025349536629319 0  -2.796536698753871 2.10460981954442 0  -2.736410188638104 2.182214306505567 0  -2.674130815375626 2.258101942397307 0  -2.60974757709108 2.332213022832013 0  -2.543311127119094 2.404489241122156 0  -2.474873734152916 2.474873734152917 0  -2.404489241122155 2.543311127119095 0  -2.332213022832013 2.60974757709108 0  -2.258101942397307 2.674130815375626 0  -2.182214306505568 2.736410188638104 0  -2.104609819544419 2.796536698753873 0  -2.025349536629319 2.854463041357411 0  -2.000052838870568 2.993290604289163 0  -2.055609862172528 3.076437565519417 0  -2.111166885474488 3.159584526749672 0  -2.166723908776448 3.242731487979927 0  -3.270339252606335 -2.30323276567138 0  -3.21283012592258 -2.382797217969733 0  -3.153385710506426 -2.460926362322506 0  -3.092041813450948 -2.537573136654581 0  -3.028835386025939 -2.612691371815106 0  -2.963804501419838 -2.686235819388072 0  -2.896988331805868 -2.758162178948266 0  -2.828427124746192 -2.828427124746189 0  -2.758162178948269 -2.896988331805866 0  -2.686235819388075 -2.963804501419835 0  -2.612691371815108 -3.028835386025937 0  -2.537573136654583 -3.092041813450948 0  -2.460926362322508 -3.153385710506424 0  -2.382797217969733 -3.21283012592258 0  -2.303232765671381 -3.270339252606335 0  -2.166723908776449 -3.242731487979925 0  -2.111166885474489 -3.159584526749671 0  -2.055609862172529 -3.076437565519416 0  -2.000052838870569 -2.993290604289162 0  -2.025349536629319 -2.854463041357412 0  -2.104609819544419 -2.796536698753872 0  -2.182214306505565 -2.736410188638105 0  -2.258101942397306 -2.674130815375627 0  -2.332213022832012 -2.609747577091081 0  -2.404489241122155 -2.543311127119096 0  -2.474873734152916 -2.474873734152916 0  -2.543311127119094 -2.404489241122156 0  -2.609747577091079 -2.332213022832014 0  -2.674130815375626 -2.258101942397306 0  -2.736410188638104 -2.182214306505568 0  -2.796536698753872 -2.10460981954442 0  -2.854463041357411 -2.02534953662932 0  -2.993290604289164 -2.000052838870567 0  -3.076437565519418 -2.055609862172528 0  -3.159584526749672 -2.111166885474488 0  -3.242731487979927 -2.166723908776448 0  2.30323276567138 -3.270339252606336 0  2.382797217969732 -3.212830125922581 0  2.460926362322507 -3.153385710506425 0  2.537573136654581 -3.092041813450948 0  2.612691371815106 -3.028835386025939 0  2.686235819388074 -2.963804501419836 0  2.758162178948267 -2.896988331805868 0  2.82842712474619 -2.82842712474619 0  2.896988331805868 -2.758162178948268 0  2.963804501419836 -2.686235819388074 0  3.028835386025939 -2.612691371815107 0  3.092041813450948 -2.537573136654582 0  3.153385710506425 -2.460926362322508 0  3.21283012592258 -2.382797217969733 0  3.270339252606335 -2.30323276567138 0  3.242731487979925 -2.166723908776449 0  3.159584526749671 -2.111166885474489 0  3.076437565519416 -2.055609862172529 0  2.993290604289162 -2.000052838870569 0  2.854463041357411 -2.025349536629319 0  2.796536698753872 -2.104609819544419 0  2.736410188638105 -2.182214306505566 0  2.674130815375627 -2.258101942397305 0  2.609747577091081 -2.332213022832013 0  2.543311127119096 -2.404489241122155 0  2.474873734152918 -2.474873734152915 0  2.404489241122158 -2.543311127119093 0  2.332213022832015 -2.609747577091079 0  2.258101942397308 -2.674130815375625 0  2.182214306505568 -2.736410188638104 0  2.104609819544421 -2.796536698753871 0  2.02534953662932 -2.854463041357411 0  2.000052838870567 -2.993290604289164 0  2.055609862172528 -3.076437565519418 0  2.111166885474488 -3.159584526749672 0  2.166723908776448 -3.242731487979927 0  5.999179829954814 0.0992036685981503 0  5.996719544045556 0.1983802159038491 0  5.992619814889829 0.2975025280393312 0  5.986881763312647 0.3965435059541944 0  5.97950695804002 0.495476072833992 0  5.970497415270069 0.5942731815027745 0  5.95985559812183 0.6929078218175151 0  5.947584415961851 0.7913530280524123 0  5.933687223608811 0.8895818862710482 0  5.918167820416334 0.9875675416844002 0  5.901030449234295 1.085283205992656 0  5.882279795248857 1.182702164708879 0  5.861920984701596 1.279797784462479 0  5.839959583488035 1.376543520280507 0  5.816401595635984 1.472912922844791 0  5.791253461664093 1.568879645722915 0  5.76452205682109 1.664417452571064 0  5.736214689206147 1.759500224306785 0  5.706339097770924 1.854101966249679 0  5.67490345020381 1.948196815228096 0  5.641916340696969 2.041759046649853 0  5.607386787596767 2.134763081535094 0  5.571324230938244 2.22718349350932 0  5.53373852986431 2.318995015754709 0  5.494639959930346 2.410172547917813 0  5.454039210294976 2.500691162971739 0  5.411947380797756 2.590526114030954 0  5.368375978924584 2.679652841116834 0  5.323336916661674 2.768046977872121 0  5.276842507238937 2.855684358222436 0  5.228905461763667 2.942541022983042 0  5.179538885745447 3.028593226409055 0  5.128756275513238 3.113817442687285 0  5.076571514525616 3.198190372367956 0  5.022998869575176 3.281688948734556 0  4.968052986888125 3.364290344110029 0  4.91174888812016 3.445971976097655 0  4.854101966249689 3.526711513754831 0  4.795127981369555 3.606486883698142 0  4.734843056378368 3.685276276137998 0  4.673263672572681 3.763058150841213 0  4.610406665141161 3.839811243019891 0  4.546289218562016 3.915514569145002 0  4.480928861904932 3.99014743268308 0  4.414343464038798 4.063689429754437 0  4.346551228746542 4.136120454711387 0  4.277570689748392 4.207420705634922 0  4.207420705634942 4.277570689748372 0  4.136120454711405 4.346551228746524 0  4.063689429754456 4.41434346403878 0  3.990147432683101 4.480928861904912 0  3.915514569145022 4.546289218561999 0  3.839811243019909 4.610406665141145 0  3.763058150841232 4.673263672572666 0  3.685276276138017 4.734843056378354 0  3.60648688369816 4.795127981369541 0  3.526711513754853 4.854101966249674 0  3.445971976097676 4.911748888120145 0  3.36429034411005 4.968052986888111 0  3.281688948734575 5.022998869575162 0  3.198190372367976 5.076571514525604 0  3.113817442687305 5.128756275513226 0  3.028593226409076 5.179538885745435 0  2.942541022983062 5.228905461763656 0  2.855684358222454 5.276842507238927 0  2.76804697787214 5.323336916661664 0  2.679652841116852 5.368375978924575 0  2.59052611403097 5.411947380797749 0  2.500691162971755 5.454039210294969 0  2.410172547917824 5.494639959930342 0  2.31899501575472 5.533738529864305 0  2.227183493509331 5.57132423093824 0  2.134763081535105 5.607386787596763 0  2.041759046649864 5.641916340696966 0  1.948196815228107 5.674903450203805 0  1.85410196624969 5.706339097770919 0  1.759500224306794 5.736214689206144 0  1.664417452571073 5.764522056821088 0  1.568879645722924 5.791253461664091 0  1.4729129228448 5.81640159563598 0  1.376543520280515 5.839959583488033 0  1.279797784462486 5.861920984701595 0  1.182702164708886 5.882279795248856 0  1.085283205992663 5.901030449234294 0  0.9875675416844072 5.918167820416333 0  0.88958188
[...]
<CellData  Vectors="f_74"> 
<DataArray  type="Float64"  Name="f_74"  NumberOfComponents="3" format="ascii">7.8104383797759369e-01  7.8105428980759539e-01 0.0000000000000000e+00  7.8129038432865539e-01  7.8116457005050921e-01 0.0000000000000000e+00  7.8104433740968626e-01  7.8103179077643059e-01 0.0000000000000000e+00  7.8116543490645118e-01  7.8128763739151763e-01 0.0000000000000000e+00  7.8098063867937650e-01  7.8095251456079284e-01 0.0000000000000000e+00  7.8099228942125343e-01  7.8100641486336175e-01 0.0000000000000000e+00  7.8106116038480167e-01  7.8104263531903584e-01 0.0000000000000000e+00  7.8103239251450529e-01  7.8104483690953252e-01 0.0000000000000000e+00  7.8101055270088493e-01  7.8102703488004332e-01 0.0000000000000000e+00  7.8142832790627492e-01  7.8120297709050013e-01 0.0000000000000000e+00  7.8097916606926221e-01  7.8090689056324925e-01 0.0000000000000000e+00  7.8100593481924785e-01  7.8125572741495963e-01 0.0000000000000000e+00  7.8150145967630269e-01  7.8103270199137353e-01 0.0000000000000000e+00  7.8120691746636628e-01  7.8142700255220054e-01 0.0000000000000000e+00  7.8101182557826987e-01  7.8103599896038045e-01 0.0000000000000000e+00  7.8103427301387784e-01  7.8149355925708119e-01 0.0000000000000000e+00  7.8125449527802782e-01  7.8100254909916722e-01 0.0000000000000000e+00  7.8086671298824917e-01  7.8115721978336150e-01 0.0000000000000000e+00  7.8101206219713826e-01  7.8108022188034143e-01 0.0000000000000000e+00  7.8115643233307941e-01  7.8086367435762416e-01 0.0000000000000000e+00  7.8099447744000972e-01  7.8102102980587351e-01 0.0000000000000000e+00  7.8103192082067163e-01  7.8092940579545611e-01 0.0000000000000000e+00  7.8101101215470736e-01  7.8099982013380254e-01 0.0000000000000000e+00  7.8098426450416869e-01  7.8100182621340120e-01 0.0000000000000000e+00  7.8101063055717324e-01  7.8100260219404949e-01 0.0000000000000000e+00  7.8102692982671240e-01  7.8089784074027158e-01 0.0000000000000000e+00  7.8096683415288537e-01  7.8110331583165149e-01 0.0000000000000000e+00  7.8096268580013228e-01  7.8094062090214034e-01 0.0000000000000000e+00  7.8109011290393293e-01  7.8092477520996251e-01 0.0000000000000000e+00  7.8103317416601015e-01  7.8101383555751280e-01 0.0000000000000000e+00  7.8108722605513425e-01  7.8090460718118737e-01 0.0000000000000000e+00  7.8092690390301156e-01  7.8116400299570854e-01 0.0000000000000000e+00  7.8098326938477181e-01  7.8105524197864573e-01 0.0000000000000000e+00  7.8103654755980978e-01  7.8112838571263332e-01 0.0000000000000000e+00  7.8101408818062468e-01  7.8101086622679450e-01 0.0000000000000000e+00  7.8090613052470870e-01  7.8109084379564575e-01 0.0000000000000000e+00  7.8103336628289788e-01  7.8101210836221957e-01 0.0000000000000000e+00  7.8104407342222848e-01  7.8105665066956276e-01 0.0000000000000000e+00  7.8098036142475946e-01  7.8109019473461017e-01 0.0000000000000000e+00  7.8089182033437621e-01  7.8098809193104235e-01 0.0000000000000000e+00  7.8087696872668821e-01  7.8122702153571966e-01 0.0000000000000000e+00  7.8099604426659863e-01  7.8099189945578396e-01 0.0000000000000000e+00  7.8099933963389978e-01  7.8099135459918423e-01 0.0000000000000000e+00  7.8100830955875289e-01  7.8106012450570228e-01 0.0000000000000000e+00  7.8116214983380827e-01  7.8092279992378211e-01 0.0000000000000000e+00  7.8094224475963747e-01  7.8126790150276593e-01 0.0000000000000000e+00  7.8116407246576980e-01  7.8093692845611917e-01 0.0000000000000000e+00  7.8084112046159471e-01  7.8098288080129885e-01 0.0000000000000000e+00  7.8105495606262831e-01  7.8087408016557103e-01 0.0000000000000000e+00  7.8122434984323452e-01  7.8087341009769529e-01 0.0000000000000000e+00  7.8098762770168706e-01  7.8090026332115048e-01 0.0000000000000000e+00  7.8093567052224899e-01  7.8092883948715031e-01 0.0000000000000000e+00  7.8113331323185675e-01  7.8086656400682619e-01 0.0000000000000000e+00  7.8103071532523105e-01  7.8101637964483484e-01 0.0000000000000000e+00  7.8101180257100089e-01  7.8100219540915317e-01 0.0000000000000000e+00  7.8083646017706532e-01  7.8113104651116960e-01 0.0000000000000000e+00  7.8112428730846839e-01  7.8103368986639410e-01 0.0000000000000000e+00  7.8132161820100132e-01  7.8070243064641875e-01 0.0000000000000000e+00  7.8088548184311546e-01  7.8134316886509791e-01 0.0000000000000000e+00  7.8097334202800839e-01  7.8127034431137432e-01 0.0000000000000000e+00  7.8153918134167333e-01  7.8141967490339326e-01 0.0000000000000000e+00  7.8142278432283241e-01  7.8154084986629402e-01 0.0000000000000000e+00  7.8100738501986966e-01  7.8116727457431900e-01 0.0000000000000000e+00  7.8116832250793955e-01  7.8100704011898014e-01 0.0000000000000000e+00  7.8104108354907043e-01  7.8117097731940310e-01 0.0000000000000000e+00  7.8106797090273128e-01  7.8109386417420568e-01 0.0000000000000000e+00  7.8110464327296869e-01  7.8098195119983471e-01 0.0000000000000000e+00  7.8091954539322139e-01  7.8109260635933064e-01 0.0000000000000000e+00  7.8109298902343594e-01  7.8106448999642408e-01 0.0000000000000000e+00  7.8127018854312702e-01  7.8096675732252874e-01 0.0000000000000000e+00  7.8117232063504083e-01  7.8103711862042968e-01 0.0000000000000000e+00  7.8110377375590911e-01  7.8097480879240677e-01 0.0000000000000000e+00  7.8105329559416903e-01  7.8095507749120230e-01 0.0000000000000000e+00  7.8105433586706685e-01  7.8096324402650763e-01 0.0000000000000000e+00  7.8101266803497549e-01  7.8094526071300829e-01 0.0000000000000000e+00  7.8104676391323680e-01  7.8098478299232821e-01 0.0000000000000000e+00  7.8098654237670684e-01  7.8105038505911184e-01 0.0000000000000000e+00  7.8103241346920638e-01  7.8102254471210053e-01 0.0000000000000000e+00  7.8100119650202138e-01  7.8099994979261811e-01 0.0000000000000000e+00  7.8099120983289638e-01  7.8099196743028465e-01 0.0000000000000000e+00  7.8102695114553433e-01  7.8103323294222571e-01 0.0000000000000000e+00  7.8102906675930894e-01  7.8098194545523925e-01 0.0000000000000000e+00  7.8098302019056398e-01  7.8095089055364897e-01 0.0000000000000000e+00  7.8096869316857243e-01  7.8097172449022656e-01 0.0000000000000000e+00  7.8096840242782584e-01  7.8099774833485747e-01 0.0000000000000000e+00  7.8097939586802445e-01  7.8102686715062530e-01 0.0000000000000000e+00  7.8101552541929176e-01  7.8096478042942896e-01 0.0000000000000000e+00  7.8098601620882879e-01  7.8097821657847732e-01 0.0000000000000000e+00  7.8097125257538369e-01  7.8099895926320573e-01 0.0000000000000000e+00  7.8097094653337884e-01  7.8102384328005481e-01 0.0000000000000000e+00  7.8121800650556206e-01  7.8082781151192893e-01 0.0000000000000000e+00  7.8083448161530278e-01  7.8105197479313704e-01 0.0000000000000000e+00  7.8083539865625939e-01  7.8122150063052298e-01 0.0000000000000000e+00  7.8097652300008813e-01  7.8084412461089370e-01 0.0000000000000000e+00  7.8086713709119882e-01  7.8091971317993258e-01 0.0000000000000000e+00  7.8104799154314120e-01  7.8083433147826908e-01 0.0000000000000000e+00  7.8112872837820446e-01  7.8083555624681988e-01 0.0000000000000000e+00  7.8091654506041386e-01  7.8087952464685517e-01 0.0000000000000000e+00  7.8087155171537037e-01  7.8105702706824298e-01 0.0000000000000000e+00  7.8100230793824166e-01  7.8097610776786097e-01 0.0000000000000000e+00  7.8102906410146244e-01  7.8098718712293147e-01 0.0000000000000000e+00  7.8086842499005482e-01  7.8113513429569426e-01 0.0000000000000000e+00  7.8098494224655557e-01  7.8099004174796760e-01 0.0000000000000000e+00  7.8073765221915670e-01  7.8132721197894039e-01 0.0000000000000000e+00  7.8134395879546936e-01  7.8087860299362943e-01 0.0000000000000000e+00  7.8126744606154852e-01  7.8093615502510128e-01 0.0000000000000000e+00  7.8105631096628747e-01  7.8104239210123438e-01 0.0000000000000000e+00  7.8108787833711568e-01  7.8097821302083559e-01 0.0000000000000000e+00  7.8090026052315265e-01  7.8097928937706207e-01 0.0000000000000000e+00  7.8117004449344196e-01  7.8075161617205047e-01 0.0000000000000000e+00  7.8075474233324271e-01  7.8117101688703139e-01 0.0000000000000000e+00  7.8089675680668513e-01  7.8103082613903452e-01 0.0000000000000000e+00  7.8180710216872962e-01  7.8118763915628431e-01 0.0000000000000000e+00  7.8117679475790369e-01  7.8180778316331212e-01 0.0000000000000000e+00  7.8099261578082069e-01  7.8098822156969383e-01 0.0000000000000000e+00  7.8062006332840361e-01  7.8092336267565809e-01 0.0000000000000000e+00  7.8092220219768183e-01  7.8061720384567812e-01 0.0000000000000000e+00  7.8159159906065079e-01  7.8155047207669459e-01 0.0000000000000000e+00  7.8154777818968557e-01  7.8157853372939767e-01 0.0000000000000000e+00  7.8098727143141033e-01  7.8110660039824575e-01 0.0000000000000000e+00  7.8093359179895860e-01  7.8116499569201170e-01 0.0000000000000000e+00  7.8099152098568003e-01  7.8099346655564084e-01 0.0000000000000000e+00  7.8091914662429007e-01  7.8103397085736215e-01 0.0000000000000000e+00  7.8107452336663952e-01  7.8111199309530099e-01 0.0000000000000000e+00  7.8133608330106097e-01  7.7988512732341309e-01 0.0000000000000000e+00  7.8262310591356077e-01  7.8013313114212246e-01 0.0000000000000000e+00  7.8092218666256408e-01  7.8094854166599748e-01 0.0000000000000000e+00  7.8093756014222337e-01  7.8098195674531667e-01 0.0000000000000000e+00  7.8111771892790538e-01  7.8107518244109597e-01 0.0000000000000000e+00  7.8108420061422512e-01  7.8101393681679487e-01 0.0000000000000000e+00  7.8106127491677291e-01  7.8099954391773796e-01 0.0000000000000000e+00  7.8102138870942750e-01  7.8106858117203493e-01 0.0000000000000000e+00  7.8102962226149686e-01  7.8104826173356878e-01 0.0000000000000000e+00  7.8106740536054164e-01  7.8102286017277034e-01 0.0000000000000000e+00  7.8105006708376257e-01  7.8102712361816562e-01 0.0000000000000000e+00  7.8008226576259188e-01  7.8265187945362258e-01 0.0000000000000000e+00  7.7980976365198829e-01  7.8125524507270627e-01 0.0000000000000000e+00  7.8101187316410037e-01  7.8102776827725773e-01 0.0000000000000000e+00  7.8100328297718924e-01  7.8098216542844456e-01 0.0000000000000000e+00  7.8098671592770075e-01  7.8099107928831490e-01 0.0000000000000000e+00  7.8099290043650460e-01  7.8100034937323493e-01 0.0000000000000000e+00  7.8099800421932963e-01  7.8099172851931231e-01 0.0000000000000000e+00  7.8099317531395129e-01  7.8099247289903273e-01 0.0000000000000000e+00  7.8099588770904149e-01  7.8099684319461837e-01 0.0000000000000000e+00  7.8094912781157222e-01  7.8079800079502237e-01 0.0000000000000000e+00  7.8080103832433523e-01  7.8095052233343398e-01 0.0000000000000000e+00  7.8201251568630514e-01  7.8079679320552342e-01 0.0000000000000000e+00  7.8079948866267790e-01  7.8201122356560526e-01 0.0000000000000000e+00  7.8148558519858402e-01  7.8047362776123197e-01 0.0000000000000000e+00  7.8127897855370965e-01  7.8107737175714043e-01 0.0000000000000000e+00  7.8102078506880546e-01  7.8104597039015178e-01 0.0000000000000000e+00  7.8104874723044870e-01  7.8102215098941108e-01 0.0000000000000000e+00  7.8047714938900525e-01  7.8148524216683823e-01 0.0000000000000000e+00  7.8095455643804002e-01  7.8105548830167615e-01 0.0000000000000000e+00  7.8106143019161700e-01  7.8100742115185284e-01 0.0000000000000000e+00  7.8108319264665638e-01  7.8127646014424412e-01 0.0000000000000000e+00  7.8094927722657792e-01  7.8105421791963270e-01 0.0000000000000000e+00  7.8101145993561683e-01  7.8101690569755156e-01 0.0000000000000000e+00  7.8177138063478413e-01  7.8088393153298752e-01 0.0000000000000000e+00  7.8088630588399111e-01  7.8177179735172908e-01 0.0000000000000000e+00  7.8094152922936988e-01  7.8101237908783538e-01 0.0000000000000000e+00  7.8157151467227914e-01  7.8080667584566710e-01 0.0000000000000000e+00  7.8099735653942837e-01  7.8101089132754742e-01 0.0000000000000000e+00  7.8099699460456640e-01  7.8100103694876410e-01 0.0000000000000000e+00  7.8112711452653094e-01  7.8117913383115989e-01 0.0000000000000000e+00  7.8118274331816351e-01  7.8112602450108548e-01 0.0000000000000000e+00  7.8117462568717322e-01  7.8186567839202215e-01 0.0000000000000000e+00  7.8202697046016711e-01  7.7894614987498445e-01 0.0000000000000000e+00  7.7895425695442067e-01  7.8202563607104381e-01 0.0000000000000000e+00  7.8189166316175840e-01  7.8118438265868917e-01 0.0000000000000000e+00  7.8128013998632084e-01  7.8181901533365639e-01 0.0000000000000000e+00  7.8181844738978790e-01  7.8127851431847162e-01 0.0000000000000000e+00  7.8033773301366338e-01  7.7926101031427242e-01 0.0000000000000000e+00  7.7926829676083087e-01  7.8034080134909445e-01 0.0000000000000000e+00  7.8082705284493459e-01  7.8152953450005846e-01 0.0000000000000000e+00  7.8094573442389259e-01  7.8101342661491158e-01 0.0000000000000000e+00  7.8083964409261375e-01  7.8150506792205376e-01 0.0000000000000000e+00  7.8152083317855525e-01  7.8083247708439907e-01 0.0000000000000000e+00  7.8098697216360613e-01  7.8097747806752305e-01 0.0000000000000000e+00  7.8094348994819962e-01  7.8097636091975131e-01 0.0000000000000000e+00  7.8108229585859112e-01  7.8098400995402517e-01 0.0000000000000000e+00  7.8098687028856240e-01  7.8108356352281672e-01 0.0000000000000000e+00  7.8099310488410101e-01  7.8099156901653222e-01 0.0000000000000000e+00  7.8095822645877522e-01  7.8097943664072556e-01 0.0000000000000000e+00  7.8111754379813381e-01  7.8117472568557345e-01 0.0000000000000000e+00  7.8117666587638013e-01  7.8111229181221764e-01 0.0000000000000000e+00  7.8118398541527168e-01  7.8143748121072398e-01 0.0000000000000000e+00  7.8143855926187233e-01  7.8118227909273341e-01 0.0000000000000000e+00  7.8107933226598147e-01  7.8140323090109076e-01 0.0000000000000000e+00  7.8140385488119046e-01  7.8107717589394132e-01 0.0000000000000000e+00  7.8156424029758731e-01  7.8095145365037621e-01 0.0000000000000000e+00  7.8095333242389819e-01  7.8156436804762430e-01 0.0000000000000000e+00  7.8099208101381301e-01  -7.8099223066625156e-01 0.0000000000000000e+00  7.8098415434437618e-01  -7.8095441270323174e-01 0.0000000000000000e+00  7.8089972745542791e-01  -7.8108984450721430e-01 0.0000000000000000e+00  7.8098172368200913e-01  -7.8090882464493772e-01 0.0000000000000000e+00  7.8098607008036136e-01  -7.8099055903495596e-01 0.0000000000000000e+00  7.8129131533401863e-01  -7.8116560365300058e-01 0.0000000000000000e+00  7.8106058793804833e-01  -7.8104349838322562e-01 0.0000000000000000e+00  7.8099525076556220e-01  -7.8099942186445703e-01 0.0000000000000000e+00  7.8099162652775012e-01  -7.8099206895068241e-01 0.0000000000000000e+00  7.8092022652296877e-01  -7.8109259962454181e-01 0.0000000000000000e+00  7.8099069627035267e-01  -7.8099267940803652e-01 0.0000000000000000e+00  7.8104754702184964e-01  -7.8105978548183219e-01 0.0000000000000000e+00  7.8104705542114217e-01  -7.8102886948495176e-01 0.0000000000000000e+00  7.8098886792421918e-01  -7.8100316782348878e-01 0.0000000000000000e+00  7.8142990043335447e-01  -7.8120685617934549e-01 0.0000000000000000e+00  7.8096468399789853e-01  -7.8094113585186975e-01 0.0000000000000000e+00  7.8117314404550142e-01  -7.8120057047639690e-01 0.0000000000000000e+00  7.8150219585579828e-01  -7.8103122232328992e-01 0.0000000000000000e+00  7.8100587828777734e-01  -7.8125736421980330e-01 0.0000000000000000e+00  7.8086368725260002e-01  -7.8115787578401830e-01 0.0000000000000000e+00  7.8101259066277084e-01  -7.8099950532678863e-01 0.0000000000000000e+00  7.8114829181051781e-01  -7.8105519110171151e-01 0.0000000000000000e+00  7.8101178707506702e-01  -7.8099959569479793e-01 0.0000000000000000e+00  7.8097717732086447e-01  -7.8084513078388584e-01 0.0000000000000000e+00  7.8102713481179853e-01  -7.8090025460019430e-01 0.0000000000000000e+00  7.8099364138034311e-01  -7.8100496375622575e-01 0.0000000000000000e+00  7.8109019418413494e-01  -7.8092812870006445e-01 0.0000000000000000e+00  7.8125839351036719e-01  -7.8116213196801521e-01 0.0000000000000000e+00  7.8108719882901056e-01  -7.8090443303378954e-01 0.0000000000000000e+00  7.8105511517617521e-01  -7.8087751374092784e-01 0.0000000000000000e+00  7.8099000964801979e-01  -7.8090241789062120e-01 0.0000000000000000e+00  7.8103203797835796e-01  -7.8093463031365873e-01 0.0000000000000000e+00  7.8106181167057009e-01  -7.8104547736537944e-01 0.0000000000000000e+00  7.8098854124956851e-01  -7.8097962202258187e-01 0.0000000000000000e+00  7.8118714929863808e-01  -7.8149144141505511e-01 0.0000000000000000e+00  7.8097768124528610e-01  -7.8137336999900642e-01 0.0000000000000000e+00  7.8143924650598473e-01  -7.8133013643576277e-01 0.0000000000000000e+00  7.8089685193995617e-01  -7.8102656284753258e-01 0.0000000000000000e+00  7.8090102582597898e-01  -7.8097777440780858e-01 0.0000000000000000e+00  7.8116252959674359e-01  -7.8092256918365410e-01 0.0000000000000000e+00  7.8089405981074589e-01  -7.8098558980477395e-01 0.0000000000000000e+00  7.8116446441727105e-01  -7.8093826597849536e-01 0.0000000000000000e+00  7.8100274752051835e-01  -7.8098723609453624e-01 0.0000000000000000e+00  7.8116831140831855e-01  -7.8097604474844118e-01 0.0000000000000000e+00  7.8126984146825706e-01  -7.8093633975585441e-01 0.0000000000000000e+00  7.8102036791411100e-01  -7.8120244166007635e-01 0.0000000000000000e+00  7.8099652791552365e-01  -7.8101834964012162e-01 0.0000000000000000e+00  7.8092009363527604e-01  -7.8103096001900552e-01 0.0000000000000000e+00  7.8086804538484711e-01  -7.8091993622685729e-01 0.0000000000000000e+00  7.8086426137560006e-01  -7.8122239494236645e-01 0.0000000000000000e+00  7.8122578258426356e-01  -7.8087334619363835e-01 0.0000000000000000e+00  7.8113212523691300e-01  -7.8086961875410332e-01 0.0000000000000000e+00  7.8104407726171410e-01  -7.8113419847716437e-01 0.0000000000000000e+00  7.8070077808685667e-01  -7.8133376326277437e-01 0.0000000000000000e+00  7.8134407057656263e-01  -7.8088011764339282e-01 0.0000000000000000e+00  7.8127261825067129e-01  -7.8096997501417276e-01 0.0000000000000000e+00  7.8155440729978576e-01  -7.8142971942967776e-01 0.0000000000000000e+00  7.8142099015682120e-01  -7.8154062973679606e-01 0.0000000000000000e+00  7.8116924300019730e-01  -7.8101049217101581e-01 0.0000000000000000e+00  7.8109277262669863e-01  -7.8106656509342587e-01 0.0000000000000000e+00  7.8117243758550381e-01  -7.8103897247413201e-01 0.0000000000000000e+00  7.8110425310039888e-01  -7.8097710728019643e-01 0.0000000000000000e+00  7.8110496368480697e-01  -7.8098385675521320e-01 0.0000000000000000e+00  7.8105399515442853e-01  -7.8095542562271647e-01 0.0000000000000000e+00  7.8105495171728989e-01  -7.8096506018108203e-01 0.0000000000000000e+00  7.8102066217337951e-01  -7.8119192751248212e-01 0.0000000000000000e+00  7.8101386040373644e-01  -7.8094719404337787e-01 0.0000000000000000e+00  7.8102717484290152e-01  -7.8098641950995717e-01 0.0000000000000000e+00  7.8101551042283002e-01  -7.8096597363654263e-01 0.0000000000000000e+00  7.8098500532863602e-01  -7.8095378299480367e-01 0.0000000000000000e+00  7.8098767718340190e-01  -7.8098020747892316e-01 0.0000000000000000e+00  7.8097150727071729e-01  -7.8097317763107044e-01 0.0000000000000000e+00  7.8097401592942217e-01  -7.8099854359597243e-01 0.0000000000000000e+00  7.8097055792164760e-01  -7.8099705828048283e-01 0.0000000000000000e+00  7.8097375921636991e-01  -7.8102122523453010e-01 0.0000000000000000e+00  7.8095165312949366e-01  -7.8105015531493804e-01 0.0000000000000000e+00  7.8098240422583431e-01  -7.8102487080941085e-01 0.0000000000000000e+00  7.8096090546635866e-01  -7.8105295133326846e-01 0.0000000000000000e+00  7.8098628582605945e-01  -7.8104588231646688e-01 0.0000000000000000e+00  7.8105217028541385e-01  -7.8098179260597123e-01 0.0000000000000000e+00  7.8102251251346355e-01  -7.8103283047062011e-01 0.0000000000000000e+00  7.8099846889826874e-01  -7.8100011907683276e-01 0.0000000000000000e+00  7.8099134865335884e-01  -7.8099114275273551e-01 0.0000000000000000e+00  7.8103375179673540e-01  -7.8102567724257332e-01 0.0000000000000000e+00  7.8096634905549944e-01  -7.8108789500082487e-01 0.0000000000000000e+00  7.8122006560439461e-01  -7.8082870499944479e-01 0.0000000000000000e+00  7.8081848429299505e-01  -7.8121703729505521e-01 0.0000000000000000e+0