<?xml version="1.0"?>
<VTKFile type="UnstructuredGrid"  version="0.1"  >
<UnstructuredGrid>
<Piece  NumberOfPoints="1945" NumberOfCells="3760">
<Points>
<DataArray  type="Float64"  NumberOfComponents="3"  format="ascii">3.325878449210181 2.222280932078409 0  2.222280932078409 3.32587844921018 0  1.944495815568608 2.910143643058908 0  2.910143643058908 1.944495815568608 0  -2.222280932078409 3.325878449210181 0  -3.32587844921018 2.222280932078409 0  -2.910143643058908 1.944495815568608 0  -1.944495815568607 2.910143643058908 0  -3.325878449210181 -2.222280932078408 0  -2.22228093207841 -3.32587844921018 0  -1.944495815568609 -2.910143643058908 0  -2.910143643058909 -1.944495815568607 0  2.222280932078408 -3.325878449210181 0  3.32587844921018 -2.22228093207841 0  2.910143643058908 -1.944495815568609 0  1.944495815568607 -2.910143643058909 0  6 0 0  3.673940397442059e-16 6 0  -1.102182119232618e-15 -6 0  -6 7.347880794884119e-16 0  3.173413361164942 2.435045716034881 0  3.007359229915911 2.637383260400274 0  2.828427124746191 2.82842712474619 0  2.637383260400276 3.007359229915909 0  2.435045716034884 3.17341336116494 0  2.083388373823509 3.118011046134545 0  2.166828822584419 2.748609258082607 0  2.375802609365295 2.5701287830249 0  2.5701287830249 2.375802609365296 0  2.748609258082609 2.166828822584418 0  3.118011046134544 2.083388373823508 0  -2.435045716034882 3.173413361164941 0  -2.637383260400274 3.007359229915911 0  -2.82842712474619 2.828427124746191 0  -3.007359229915908 2.637383260400278 0  -3.17341336116494 2.435045716034884 0  -3.118011046134545 2.083388373823509 0  -2.748609258082607 2.166828822584419 0  -2.5701287830249 2.375802609365296 0  -2.375802609365296 2.5701287830249 0  -2.166828822584418 2.748609258082609 0  -2.083388373823508 3.118011046134544 0  -3.173413361164941 -2.435045716034882 0  -3.00735922991591 -2.637383260400275 0  -2.828427124746191 -2.828427124746189 0  -2.637383260400277 -3.007359229915908 0  -2.435045716034884 -3.17341336116494 0  -2.083388373823509 -3.118011046134544 0  -2.166828822584418 -2.748609258082608 0  -2.375802609365296 -2.5701287830249 0  -2.5701287830249 -2.375802609365296 0  -2.748609258082608 -2.166828822584419 0  -3.118011046134545 -2.083388373823508 0  2.435045716034881 -3.173413361164942 0  2.637383260400275 -3.00735922991591 0  2.82842712474619 -2.82842712474619 0  3.00735922991591 -2.637383260400274 0  3.173413361164941 -2.435045716034882 0  3.118011046134544 -2.083388373823509 0  2.748609258082607 -2.166828822584419 0  2.570128783024899 -2.375802609365297 0  2.375802609365296 -2.5701287830249 0  2.16682882258442 -2.748609258082607 0  2.083388373823508 -3.118011046134545 0  5.992772737231034 0.2944060459645064 0  5.971108360033181 0.5881028419773635 0  5.935059059788686 0.8803828467321695 0  5.884711682419383 1.17054193209677 0  5.820187519167264 1.457881079419583 0  5.741642014393253 1.741708063526773 0  5.649264391098125 2.02133912035332 0  5.54327719506772 2.296100594190538 0  5.423935758740661 2.565330560581691 0  5.291527586090131 2.828380420955986 0  5.146371660001632 3.084616465159329 0  4.988817673815273 3.333421398117612 0  4.81924518888387 3.574195826954599 0  4.638062720176423 3.806359704981872 0  4.445706752129754 4.029353729082111 0  4.242640687119286 4.242640687119285 0  4.029353729082112 4.445706752129753 0  3.806359704981876 4.63806272017642 0  3.574195826954599 4.819245188883871 0  3.333421398117613 4.988817673815271 0  3.084616465159331 5.146371660001632 0  2.828380420955987 5.29152758609013 0  2.565330560581695 5.423935758740659 0  2.296100594190542 5.543277195067719 0  2.02133912035332 5.649264391098125 0  1.741708063526774 5.741642014393253 0  1.457881079419585 5.820187519167264 0  1.170541932096772 5.884711682419382 0  0.8803828467321739 5.935059059788685 0  0.5881028419773627 5.971108360033181 0  0.2944060459645081 5.992772737231034 0  0.2944060459645067 -5.992772737231034 0  0.5881028419773613 -5.971108360033181 0  0.8803828467321685 -5.935059059788686 0  1.170541932096767 -5.884711682419383 0  1.457881079419579 -5.820187519167265 0  1.741708063526771 -5.741642014393254 0  2.021339120353316 -5.649264391098126 0  2.296100594190533 -5.543277195067724 0  2.565330560581686 -5.423935758740662 0  2.828380420955979 -5.291527586090133 0  3.084616465159323 -5.146371660001637 0  3.333421398117605 -4.988817673815277 0  3.574195826954591 -4.819245188883876 0  3.806359704981865 -4.638062720176428 0  4.029353729082103 -4.445706752129762 0  4.242640687119277 -4.242640687119294 0  4.445706752129746 -4.02935372908212 0  4.638062720176414 -3.806359704981881 0  4.819245188883862 -3.574195826954609 0  4.988817673815266 -3.333421398117622 0  5.146371660001628 -3.084616465159337 0  5.291527586090127 -2.828380420955992 0  5.423935758740658 -2.565330560581697 0  5.543277195067718 -2.296100594190544 0  5.649264391098123 -2.021339120353324 0  5.741642014393252 -1.741708063526779 0  5.820187519167263 -1.457881079419587 0  5.884711682419383 -1.170541932096771 0  5.935059059788686 -0.8803828467321708 0  5.971108360033181 -0.5881028419773651 0  5.992772737231034 -0.2944060459645078 0  -0.294406045964506 5.992772737231034 0  -0.5881028419773605 5.971108360033181 0  -0.8803828467321717 5.935059059788685 0  -1.17054193209677 5.884711682419383 0  -1.457881079419582 5.820187519167264 0  -1.741708063526773 5.741642014393253 0  -2.021339120353318 5.649264391098125 0  -2.29610059419054 5.54327719506772 0  -2.565330560581693 5.42393575874066 0  -2.828380420955986 5.291527586090131 0  -3.084616465159328 5.146371660001633 0  -3.333421398117611 4.988817673815273 0  -3.574195826954597 4.819245188883872 0  -3.806359704981873 4.638062720176421 0  -4.02935372908211 4.445706752129755 0  -4.242640687119285 4.242640687119286 0  -4.445706752129753 4.029353729082112 0  -4.63806272017642 3.806359704981876 0  -4.819245188883871 3.574195826954599 0  -4.988817673815271 3.333421398117613 0  -5.146371660001632 3.084616465159331 0  -5.29152758609013 2.828380420955988 0  -5.423935758740659 2.565330560581695 0  -5.543277195067719 2.296100594190542 0  -5.649264391098125 2.02133912035332 0  -5.741642014393253 1.741708063526775 0  -5.820187519167264 1.457881079419585 0  -5.884711682419382 1.170541932096772 0  -5.935059059788685 0.8803828467321744 0  -5.971108360033181 0.5881028419773631 0  -5.992772737231034 0.2944060459645085 0  -5.992772737231034 -0.2944060459645075 0  -5.971108360033181 -0.5881028419773624 0  -5.935059059788686 -0.8803828467321688 0  -5.884711682419383 -1.170541932096767 0  -5.820187519167265 -1.457881079419581 0  -5.741642014393254 -1.741708063526771 0  -5.649264391098126 -2.021339120353317 0  -5.543277195067722 -2.296100594190535 0  -5.423935758740662 -2.565330560581688 0  -5.291527586090133 -2.82838042095598 0  -5.146371660001636 -3.084616465159324 0  -4.988817673815276 -3.333421398117608 0  -4.819245188883873 -3.574195826954594 0  -4.638062720176427 -3.806359704981867 0  -4.445706752129761 -4.029353729082104 0  -4.242640687119291 -4.242640687119279 0  -4.029353729082119 -4.445706752129747 0  -3.80635970498188 -4.638062720176416 0  -3.574195826954607 -4.819245188883865 0  -3.333421398117619 -4.988817673815268 0  -3.084616465159336 -5.146371660001629 0  -2.82838042095599 -5.291527586090128 0  -2.565330560581696 -5.423935758740659 0  -2.296100594190541 -5.543277195067719 0  -2.021339120353323 -5.649264391098123 0  -1.741708063526776 -5.741642014393253 0  -1.457881079419584 -5.820187519167264 0  -1.17054193209677 -5.884711682419383 0  -0.8803828467321692 -5.935059059788686 0  -0.588102841977362 -5.971108360033181 0  -0.2944060459645061 -5.992772737231034 0  2.915156841980636 2.392407392152562 0  2.392407392152564 2.915156841980633 0  2.632780978595949 2.632780978595948 0  2.193352175472403 2.948725006331014 0  2.948725006331014 2.193352175472401 0  2.806253581863684 2.570325696459986 0  2.570325696459987 2.806253581863683 0  -2.392407392152563 2.915156841980636 0  -2.915156841980633 2.392407392152565 0  -2.632780978595948 2.632780978595949 0  -2.948725006331014 2.193352175472403 0  -2.193352175472402 2.948725006331014 0  -2.570325696459986 2.806253581863684 0  -2.806253581863683 2.570325696459987 0  -2.392407392152564 -2.915156841980633 0  -2.915156841980635 -2.392407392152562 0  -2.632780978595949 -2.632780978595948 0  -2.193352175472404 -2.948725006331014 0  -2.948725006331014 -2.193352175472401 0  -2.570325696459987 -2.806253581863683 0  -2.806253581863684 -2.570325696459986 0  2.915156841980636 -2.392407392152562 0  2.392407392152562 -2.915156841980635 0  2.632780978595948 -2.632780978595949 0  2.193352175472401 -2.948725006331014 0  2.948725006331013 -2.193352175472401 0  2.806253581863683 -2.570325696459987 0  2.570325696459986 -2.806253581863684 0  1.930060969664054 2.634797018368643 0  -1.922086258532537 -2.645524775830266 0  2.647713475842721 -1.922770498171337 0  -2.647649067885806 1.922777722650525 0  2.788460855133403 -1.710432257825138 0  2.544136742153094 -1.689753360384464 0  -2.788387419050104 1.710250218432419 0  -2.543967360983074 1.689632701331238 0  -1.710647097504147 -2.796536359896888 0  -1.686547857913467 -2.537840227697988 0  1.706464689765438 2.794389344116387 0  1.69061780632208 2.520221884410563 0  0.1462184727734656 -5.744801077331835 0  5.739049029773151 0.1201032826910478 0  -0.1473142161875337 5.750089231875846 0  -5.748287145779752 -0.1653810039297552 0  2.692042217370751 -1.486178287280118 0  2.443018520460548 -1.460992693955132 0  -2.691862504629568 1.48599228375713 0  -2.443310817553167 1.4610961634956 0  -1.475442101317638 -2.689621706187982 0  -1.449367792617928 -2.431519904712106 0  1.464907654591587 2.683696459934236 0  1.438599799672522 2.416973308339966 0  -2.590900315677588 1.257096882130737 0  -2.3403928257618 1.230673965769834 0  2.590962493748216 -1.257026858830058 0  2.339924809586634 -1.230569254227431 0  3.134409568452778 1.833687535029979 0  -3.134426550494212 -1.833596232317473 0  1.833746744381243 -3.134401412962175 0  
[...]
<CellData  Vectors="f_66"> 
<DataArray  type="Float64"  Name="f_66"  NumberOfComponents="3" format="ascii">7.8044812753145532e-01  7.8122361695292908e-01 0.0000000000000000e+00  7.8119206008457476e-01  7.8046153918156946e-01 0.0000000000000000e+00  7.8131574030874640e-01  7.8136030614050467e-01 0.0000000000000000e+00  7.8132410256745999e-01  7.8129965774331023e-01 0.0000000000000000e+00  7.8092689237141111e-01  7.8101616649785932e-01 0.0000000000000000e+00  7.8103810954254127e-01  7.8085783868615888e-01 0.0000000000000000e+00  7.8095809766869739e-01  7.8101766828059782e-01 0.0000000000000000e+00  7.8104296404717788e-01  7.8095870964203973e-01 0.0000000000000000e+00  7.8102990087148028e-01  7.8098318985340398e-01 0.0000000000000000e+00  7.8100558151099120e-01  7.8107196963865722e-01 0.0000000000000000e+00  7.8099971105115729e-01  7.8090620633697139e-01 0.0000000000000000e+00  7.8091838203511788e-01  7.8098494995669554e-01 0.0000000000000000e+00  7.8089283112176855e-01  7.8088014864869693e-01 0.0000000000000000e+00  7.8098296595413830e-01  7.8097544086718951e-01 0.0000000000000000e+00  7.8099279680780120e-01  7.8099453383339879e-01 0.0000000000000000e+00  7.8122566747920852e-01  7.8070707795770711e-01 0.0000000000000000e+00  7.8041969733033023e-01  7.8104587380912727e-01 0.0000000000000000e+00  7.8096965695979093e-01  7.8096648946306890e-01 0.0000000000000000e+00  7.8097579680975926e-01  7.8097262931303724e-01 0.0000000000000000e+00  7.8169299718899821e-01  7.8077953026436386e-01 0.0000000000000000e+00  7.8053818920811591e-01  7.8181016658893299e-01 0.0000000000000000e+00  7.8097013276118377e-01  7.8097202782109187e-01 0.0000000000000000e+00  7.8098111831723604e-01  7.8097308648475861e-01 0.0000000000000000e+00  7.8100622050196433e-01  7.8112361162433852e-01 0.0000000000000000e+00  7.8126816126654142e-01  7.8102768885799545e-01 0.0000000000000000e+00  7.8098333871679526e-01  7.8097643127381111e-01 0.0000000000000000e+00  7.8098762014802126e-01  7.8099258547662120e-01 0.0000000000000000e+00  7.8044063630037552e-01  -7.8122916795988595e-01 0.0000000000000000e+00  7.8122463131581998e-01  -7.8044218535130438e-01 0.0000000000000000e+00  7.8131413778619652e-01  -7.8136678489173395e-01 0.0000000000000000e+00  7.8136184207975001e-01  -7.8131310875116544e-01 0.0000000000000000e+00  7.8104451959411081e-01  -7.8085926373908698e-01 0.0000000000000000e+00  7.8086643497793606e-01  -7.8104228671011899e-01 0.0000000000000000e+00  7.8104962479106466e-01  -7.8096534378952776e-01 0.0000000000000000e+00  7.8096550159500189e-01  -7.8104705437934219e-01 0.0000000000000000e+00  7.8100998079429640e-01  -7.8108402791791387e-01 0.0000000000000000e+00  7.8107891508737681e-01  -7.8100876887312454e-01 0.0000000000000000e+00  7.8100519469538476e-01  -7.8091141164418987e-01 0.0000000000000000e+00  7.8091276025472056e-01  -7.8100360528640722e-01 0.0000000000000000e+00  7.8088302112501307e-01  -7.8088162531451766e-01 0.0000000000000000e+00  7.8100093074569321e-01  -7.8099589360620403e-01 0.0000000000000000e+00  7.8099631623932320e-01  -7.8100126292899574e-01 0.0000000000000000e+00  7.8124922294209964e-01  -7.8076060673410763e-01 0.0000000000000000e+00  7.8072816791469457e-01  -7.8122969242996454e-01 0.0000000000000000e+00  7.8097993131709487e-01  -7.8097942171175072e-01 0.0000000000000000e+00  7.8098050316997891e-01  -7.8097999356463477e-01 0.0000000000000000e+00  7.8079789360353780e-01  -7.8167943499076809e-01 0.0000000000000000e+00  7.8166593020433361e-01  -7.8082521080638678e-01 0.0000000000000000e+00  7.8098648556094552e-01  -7.8098050751298276e-01 0.0000000000000000e+00  7.8098044696854907e-01  -7.8098542392698223e-01 0.0000000000000000e+00  7.8128592159177956e-01  -7.8103749396519784e-01 0.0000000000000000e+00  7.8103480538116377e-01  -7.8127033417756797e-01 0.0000000000000000e+00  7.8099936436304840e-01  -7.8099173182734949e-01 0.0000000000000000e+00  7.8099298873947631e-01  -7.8100001054673474e-01 0.0000000000000000e+00  -7.8122956351117212e-01  -7.8044200890616211e-01 0.0000000000000000e+00  -7.8045288084287556e-01  -7.8122778199249798e-01 0.0000000000000000e+00  -7.8136701212716286e-01  -7.8131444203397260e-01 0.0000000000000000e+00  -7.8131648822090560e-01  -7.8136384014421822e-01 0.0000000000000000e+00  -7.8104226784865949e-01  -7.8086591588861320e-01 0.0000000000000000e+00  -7.8085986512964822e-01  -7.8104503867193131e-01 0.0000000000000000e+00  -7.8104708158638081e-01  -7.8096593975544493e-01 0.0000000000000000e+00  -7.8096559333628501e-01  -7.8105012693608866e-01 0.0000000000000000e+00  -7.8108427218320620e-01  -7.8101030336081423e-01 0.0000000000000000e+00  -7.8100949819871823e-01  -7.8107844946776428e-01 0.0000000000000000e+00  -7.8091190985283254e-01  -7.8100590169173278e-01 0.0000000000000000e+00  -7.8100404425763847e-01  -7.8091369824137258e-01 0.0000000000000000e+00  -7.8088218714196234e-01  -7.8088398906442524e-01 0.0000000000000000e+00  -7.8099662781969259e-01  -7.8100049473162159e-01 0.0000000000000000e+00  -7.8100135407202387e-01  -7.8099661352525285e-01 0.0000000000000000e+00  -7.8076046527399723e-01  -7.8124925536625667e-01 0.0000000000000000e+00  -7.8122875523891822e-01  -7.8071937193428165e-01 0.0000000000000000e+00  -7.8097988191701795e-01  -7.8098142973266793e-01 0.0000000000000000e+00  -7.8097971794627830e-01  -7.8098126576192828e-01 0.0000000000000000e+00  -7.8168878954538368e-01  -7.8079069320050210e-01 0.0000000000000000e+00  -7.8082514136558090e-01  -7.8166642716526313e-01 0.0000000000000000e+00  -7.8098718085644991e-01  -7.8098190690196290e-01 0.0000000000000000e+00  -7.8098035643532171e-01  -7.8098695315545208e-01 0.0000000000000000e+00  -7.8127051338875275e-01  -7.8103443253144311e-01 0.0000000000000000e+00  -7.8103777765670235e-01  -7.8128601036555634e-01 0.0000000000000000e+00  -7.8099291260758574e-01  -7.8099909642479903e-01 0.0000000000000000e+00  -7.8100020974941819e-01  -7.8099357313302287e-01 0.0000000000000000e+00  -7.8122631446846791e-01  7.8044418738055343e-01 0.0000000000000000e+00  -7.8044012231340254e-01  7.8122846376977007e-01 0.0000000000000000e+00  -7.8131472533764590e-01  7.8136625424492656e-01 0.0000000000000000e+00  -7.8136319267263366e-01  7.8131299991044834e-01 0.0000000000000000e+00  -7.8086698372752872e-01  7.8104204653876375e-01 0.0000000000000000e+00  -7.8104411329252232e-01  7.8085759294246093e-01 0.0000000000000000e+00  -7.8096629443984522e-01  7.8104682595528818e-01 0.0000000000000000e+00  -7.8104931633439945e-01  7.8096570609652083e-01 0.0000000000000000e+00  -7.8107995740445380e-01  7.8100832842522983e-01 0.0000000000000000e+00  -7.8101083228538370e-01  7.8108374264035763e-01 0.0000000000000000e+00  -7.8100536483186855e-01  7.8091235489873378e-01 0.0000000000000000e+00  -7.8091386253493589e-01  7.8100363177977006e-01 0.0000000000000000e+00  -7.8088441994793634e-01  7.8088286812697083e-01 0.0000000000000000e+00  -7.8100143433384350e-01  7.8099536421380367e-01 0.0000000000000000e+00  -7.8099725094668682e-01  7.8100148168499417e-01 0.0000000000000000e+00  -7.8125081042869582e-01  7.8076198878773040e-01 0.0000000000000000e+00  -7.8072961588422063e-01  7.8123002879791392e-01 0.0000000000000000e+00  -7.8098039893150106e-01  7.8097967670362822e-01 0.0000000000000000e+00  -7.8098093425360138e-01  7.8098021202572865e-01 0.0000000000000000e+00  -7.8166548047614270e-01  7.8082627702109042e-01 0.0000000000000000e+00  -7.8079926995611726e-01  7.8167930941722308e-01 0.0000000000000000e+00  -7.8098088119607045e-01  7.8098529029343045e-01 0.0000000000000000e+00  -7.8098687270960643e-01  7.8098072219961567e-01 0.0000000000000000e+00  -7.8103572843059998e-01  7.8127060097257839e-01 0.0000000000000000e+00  -7.8128727683082444e-01  7.8103712373687006e-01 0.0000000000000000e+00  -7.8099329885958990e-01  7.8099999422473820e-01 0.0000000000000000e+00  -7.8100004823449665e-01  7.8099168143618170e-01 0.0000000000000000e+00  2.0090081211790733e-03  1.0077235187454033e-01 0.0000000000000000e+00  -4.5642892751823913e-02  -7.6018057535004818e-02 0.0000000000000000e+00  1.4010145087151027e-01  -7.3406924541672788e-02 0.0000000000000000e+00  -3.7265052175263672e-02  -4.3200551702411209e-02 0.0000000000000000e+00  -3.8235905222560101e-01  -3.9307181803033303e-02 0.0000000000000000e+00  -5.1026873491852309e-02  1.3679695649968543e-01 0.0000000000000000e+00  -5.5527201920142391e-02  9.3216342231374802e-02 0.0000000000000000e+00  5.1216299168448672e-02  -1.3687239842703569e-01 0.0000000000000000e+00  9.1618785550669060e-02  1.7626703394702098e-03 0.0000000000000000e+00  7.8514357007639562e-02  -4.7234199146364349e-02 0.0000000000000000e+00  -8.9310160796058705e-02  2.9466161646386196e-02 0.0000000000000000e+00  1.2793074174487329e-01  8.4370220408406055e-02 0.0000000000000000e+00  -7.2790912320142925e-02  2.6388495591627044e-02 0.0000000000000000e+00  -4.5644599648874545e-02  -7.6016783569631652e-02 0.0000000000000000e+00  8.5062615115938725e-03  7.4242577566469209e-02 0.0000000000000000e+00  -1.1339719745999471e-01  3.4671805316290841e-02 0.0000000000000000e+00  1.1290957341379255e-01  -3.3736053967698215e-02 0.0000000000000000e+00  2.3947537580406195e-01  1.4069211088769912e-01 0.0000000000000000e+00  3.1345662771928728e-01  1.4237654003494937e+00 0.0000000000000000e+00  -1.4120740251631830e-01  7.3771468561253120e-02 0.0000000000000000e+00  1.0895284425012470e-02  -5.8395349052835811e-03 0.0000000000000000e+00  1.2538643508930314e-01  -9.5451544346871517e-02 0.0000000000000000e+00  3.4348352810411231e-01  1.9993103833068263e-01 0.0000000000000000e+00  -6.6592583909793474e-02  -3.4283794247384314e-02 0.0000000000000000e+00  4.3465206831764425e-01  1.2396190058196156e-01 0.0000000000000000e+00  -1.2157129526797407e-01  -9.6347850284610959e-02 0.0000000000000000e+00  1.0394101197286970e-01  6.3821127021017948e-03 0.0000000000000000e+00  -1.1523514341923950e-03  -4.6886733818409229e-02 0.0000000000000000e+00  1.2145276933156468e-01  8.4471211390490381e-02 0.0000000000000000e+00  1.0791749021530420e-01  -4.7792510426090930e-02 0.0000000000000000e+00  1.0417771391810501e-01  5.5065354544311107e-03 0.0000000000000000e+00  -5.6896764284382610e-02  6.6152978460921621e-02 0.0000000000000000e+00  2.7374316270255578e-01  9.5560306606819578e-01 0.0000000000000000e+00  -1.3735658720418195e-02  -8.3758464875750241e-02 0.0000000000000000e+00  -1.2646806347156805e-01  9.5849683420953208e-02 0.0000000000000000e+00  2.3619377487370621e-03  9.6214677070538282e-02 0.0000000000000000e+00  -2.1381740914017497e-01  -3.0375203421875500e-02 0.0000000000000000e+00  -1.3254123347829319e-01  -6.7218382168007157e-02 0.0000000000000000e+00  -4.3071497332356673e-01  -7.0353815200735303e-02 0.0000000000000000e+00  5.8197352927365064e-03  -9.7798779951059997e-02 0.0000000000000000e+00  1.7635106933480699e-01  6.5930469670357636e-02 0.0000000000000000e+00  -7.0566251297136699e-03  -1.0282899231321993e-01 0.0000000000000000e+00  -2.6380507637911591e-04  -9.9627763465346492e-02 0.0000000000000000e+00  1.0000748581904004e-01  2.9867164905457914e-03 0.0000000000000000e+00  -2.3898150431839495e-02  -1.3179462193699654e-01 0.0000000000000000e+00  1.0925143306042606e-01  1.0461654792089689e-01 0.0000000000000000e+00  1.2377247982020058e-02  1.0035207547721051e-01 0.0000000000000000e+00  2.3784824195181159e-02  1.3164022459486641e-01 0.0000000000000000e+00  -8.9927226736082522e-04  -1.0031879867285028e-01 0.0000000000000000e+00  -4.5761317253423292e-02  2.5449978518874736e-03 0.0000000000000000e+00  4.5036462398901113e-02  -1.6668011862144192e-03 0.0000000000000000e+00  5.1061320913958541e-02  -1.0748839097649449e-01 0.0000000000000000e+00  -1.2345540329410627e-01  -8.3438755710354751e-02 0.0000000000000000e+00  7.7156358608248821e-03  -1.1015403971736926e-01 0.0000000000000000e+00  1.0053162592351696e-01  -2.3285420529339379e-03 0.0000000000000000e+00  -1.0992061051246803e-02  -8.5351073114114398e-02 0.0000000000000000e+00  2.6254699882162095e-03  1.0040864884022976e-01 0.0000000000000000e+00  -2.4519681345569606e-02  1.0919109951002583e-01 0.0000000000000000e+00  -3.7434409653555552e-02  2.2478630665794930e-01 0.0000000000000000e+00  -1.7754006286389925e-02  5.1933773592164348e-02 0.0000000000000000e+00  7.0273859661777266e-02  -8.0206996849902970e-02 0.0000000000000000e+00  1.6340793481234966e-01  -1.7154557156253281e-01 0.0000000000000000e+00  8.4431669057083700e-02  1.3537548008754541e-01 0.0000000000000000e+00  1.2011170653690829e-02  -1.5508434292316314e-01 0.0000000000000000e+00  2.4641833619521703e-02  -1.0973506828810314e-01 0.0000000000000000e+00  1.8773700857043701e-01  -1.5520088513433020e-01 0.0000000000000000e+00  1.0933549731963785e-01  2.4552106958047104e-02 0.0000000000000000e+00  9.6387983279438719e-02  -2.3661921773685114e-03 0.0000000000000000e+00  1.0060810816309040e-01  -1.5026243803013990e-04 0.0000000000000000e+00  -9.6220949676205036e-02  -2.1476841275269486e-03 0.0000000000000000e+00  -9.0783348387144719e-02  2.8166224580371105e-02 0.0000000000000000e+00  9.5594485987335845e-02  3.1009154317635230e-03 0.0000000000000000e+00  -6.8387978282321682e-02  -4.0645076837380861e-02 0.0000000000000000e+00  -1.6151512736875553e-02  1.1230472639664733e-01 0.0000000000000000e+00  6.7767177996782599e-02  4.1682239828020079e-02 0.0000000000000000e+00  -3.6003346246794021e-02  1.3681535270336806e-01 0.0000000000000000e+00  -1.8074526931134871e-02  -2.5696362793397698e-01 0.0000000000000000e+00  6.5963913716240042e-03  7.1199456390506205e-02 0.0000000000000000e+00  3.0513087166036457e-02  -4.7766055179445932e-03 0.0000000000000000e+00  -8.6409380968120092e-02  6.7003544018076372e-02 0.0000000000000000e+00  8.5937875551892098e-02  -6.6049181888662628e-02 0.0000000000000000e+00  1.0017505843064184e-01  -2.9341127054638171e-03 0.0000000000000000e+00  1.7241364075594429e-02  2.5754650642709803e-01 0.0000000000000000e+00  -3.5083348527890558e-02  -1.1803043728308794e-01 0.0000000000000000e+00  -7.4502948903281685e-03  1.0945498890794826e-01 0.0000000000000000e+00  3.6331438486042353e-02  -1.3695125670015668e-01 0.0000000000000000e+00  2.9679193671021925e-02  -2.1118678589841522e-01 0.0000000000000000e+00  -4.9478670746949838e-02  4.0160507487708136e-02 0.0000000000000000e+00  2.4087488734274787e-01  6.2286883308324340e-02 0.0000000000000000e+00  2.5681707924765720e-03  -1.8488931105781470e-01 0.0000000000000000e+00  -6.8317821638840009e-02  -1.2059782081961461e-01 0.0000000000000000e+00  -2.4756129596194168e-01  -1.0132241541740353e-01 0.0000000000000000e+00  7.0836900105635023e-02  1.2446703716801875e-01 0.0000000000000000e+00  4.7977606063392478e-02  1.8635829130574380e-01 0.0000000000000000e+00  -1.0685266459156550e-01  3.0644003661912955e-02 0.0000000000000000e+00  8.9140141700307096e-04  -9.8997749223647097e-02 0.0000000000000000e+00  1.2693885398075030e-01  -2.5410133243109475e-02 0.0000000000000000e+00  1.3712264653184508e-01  -6.1147589896908314e-02 0.0000000000000000e+00  1.5663287282120597e-01  -9.5772846855377167e-02 0.0000000000000000e+00  1.3123016608776406e-01  6.8155704472227435e-02 0.0000000000000000e+00  8.4344534458230491e-01  -1.2114008526586284e-01 0.0000000000000000e+00  -9.9365275710540241e-03  -1.1870630287984900e-01 0.0000000000000000e+00  -5.4452388344364522e-01  6.7255910343076486e-02 0.0000000000000000e+00  1.6401502680924319e-02  -1.1219633851478690e-01 0.0000000000000000e+00  1.5393445711616396e-01  2.1106095512374246e-02 0.0000000000000000e+00  1.1246331524252366e-01  1.6490369999629724e-02 0.0000000000000000e+00  -1.0959438087346179e-01  -2.3962363303778614e-01 0.0000000000000000e+00  -1.3178365615657497e-01  1.5072477951013541e-02 0.0000000000000000e+00  1.3673873976572595e-02  -9.0899640994957023e-03 0.0000000000000000e+00  2.5702764601667671e-01  -3.5422542906231225e-01 0.0000000000000000e+00  -8.3160687291579841e-02  1.2310212712495833e-01 0.0000000000000000e+00  8.3020703087857445e-02  -1.2244642083240047e-01 0.0000000000000000e+00  -9.6805660127453771e-02  2.3764455684740591e-03 0.0000000000000000e+00  6.5843650654636210e-02  1.3846374267107478e-01 0.0000000000000000e+00  1.0035842841551626e-01  -1.2378031542224846e-02 0.0000000000000000e+00  -1.0105500415405733e-01  -2.1885373643113111e-05 0.0000000000000000e+00  5.0747961111186263e-02  1.3749642250969718e-01 0.0000000000000000e+00  6.8519235221426777e-02  6.3019400933807457e-01 0.0000000000000000e+00  1.1011455007100247e-01  7.8999020839708046e-03 0.0000000000000000e+00  1.0749902315209413e-01  2.3993591139602885e-01 0.0000000000000000e+00  -3.6140550889022643e-01  -6.1532763159869586e-01 0.0000000000000000e+00  3.5921208692686829e-01  6.1709855194218477e-01 0.0000000000000000e+00  -1.3799196183974516e-01  6.1347476137949164e-02 0.0000000000000000e+00  -6.9972795128922752e-02  -6.2829828832365386e-01 0.0000000000000000e+00  -1.5188192906085471e-01  -1.6342878223928735e-02 0.0000000000000000e+00  1.5126730295583515e-01  1.7471763514451996e-02 0.0000000000000000e+00  1.5120212311590095e-02  -6.9534574457610396e-02 0.0000000000000000e+00  -1.5541222087238921e-01  -7.8889873751562437e-02 0.0000000000000000e+00  -1.0091545134610683e-01  2.4571043216634059e-03 0.0000000000000000e+00  1.0774472508562190e-01  -5.7723800358035454e-02 0.0000000000000000e+00  4.1071957881020603e-03  -1.0292842942269886e-01 0.0000000000000000e+00  3.0685563590604370e-02  -7.7592422249685031e-02 0.0000000000000000e+00  -3.7305328359686953e-03  -7.8344315951500293e-02 0.0000000000000000e+00  2.4000520593791821e-01  -4.5236254022100242e-01 0.0000000000000000e+00  1.7003149499949163e-01  -1.0821209194337218e-01 0.0000000000000000e+00  1.2219984844056538e-02  1.9251673743997302e-01 0.0000000000000000e+00  1.1058777850625273e-01  -3.9179581992393478e-02 0.0000000000000000e+00  -1.3270196699181770e-02  -6.8861802194058366e-02 0.0000000000000000e+00  -6.4214196405526849e-02  -1.3754904417407438e-01 0.0000000000000000e+00  5.0311748919389343e-01  1.3861161379976411e-01 0.0000000000000000e+00  1.2824362625303998e-01  1.0454566997121330e-02 0.0000000000000000e+00  -1.0926553273419570e-03  9.5348008616064267e-02 0.0000000000000000e+00  -6.0683349323319473e-02  4.0571290830404720e-02 0.0000000000000000e+00  2.9243172672360346e-03  9.5839011560254150e-02 0.0000000000000000e+00  -1.2661848218396654e-01  -1.0075472596419527e-02 0.0000000000000000e+00  4.9929799621280697e-02  -1.3847529680755152e-01 0.0000000000000000e+00  -4.9552693039091905e-02  1.3862236901406641e-01 0.0000000000000000e+00  2.8723966509496747e-02  1.2028789796018410e-01 0.0000000000000000e+00  -2.8941978418009582e-02  -1.2078402537559842e-01 0.0000000000000000e+00  1.3504748781386952e-02  3.4468148188696202e-02 0.0000000000000000e+00  -1.4118947570442670e-02  -3.3738261059031223e-02 0.0000000000000000e+00  4.6963149289100184e-03  8.6761703343993662e-02 0.0000000000000000e+00  -6.2787302784172119e-02  6.1019875098257209e-02 0.0000000000000000e+00  1.6371852000954859e-01  9.8793172874776070e-02 0.0000000000000000e+00  9.3175270298180499e-02  -2.3530773951663797e-01 0.0000000000000000e+00  1.2384604712996621e-02  6.1777233119093555e-02 0.0000000000000000e+00  -1.4917017283384099e-02  1.0627970416627081e-01 0.0000000000000000e+00  -5.5508102147932581e-01  3.9389531339601513e-01 0.0000000000000000e+00  3.8092895597554299e-03  -1.0506107121547761e-01 0.0000000000000000e+00  1.3967442721583692e-02  1.1024634109951105e-01 0.0000000000000000e+00  -1.2637523554897081e-02  3.8749292902176879e-02 0.0000000000000000e+00  1.0968242528890670e-02  1.0131397069763179e-01 0.0000000000000000e+00  6.4905301259351447e-03  9.8059505154178703e-02 0.0000000000000000e+00  5.5414384519089954e-01  -3.9356527631723498e-01 0.0000000000000000e+00  -9.5797651449112883e-02  -7.6499414694595350e-03 0.0000000000000000e+00  1.1574855836726680e-01  -1.0029510888850011e-02 0.0000000000000000e+00  -1.3147641915624644e-01  -2.2701900668924805e-02 0.0000000000000000e+00  6.6905888778096057e-02  -1.3556852826013355e-01 0.0000000000000000e+00  -6.6614298206300021e-02  1.359560