<?xml version="1.0"?>
<VTKFile type="UnstructuredGrid"  version="0.1"  >
<UnstructuredGrid>
<Piece  NumberOfPoints="1945" NumberOfCells="3760">
<Points>
<DataArray  type="Float64"  NumberOfComponents="3"  format="ascii">2.36117349033331 3.533745852285818 0  0.8291338685685457 4.168337441713729 0  0.7315887075604814 3.677944801512114 0  2.083388373823508 3.118011046134545 0  -2.36117349033331 3.533745852285817 0  -3.533745852285816 2.361173490333309 0  -3.118011046134545 2.083388373823508 0  -2.083388373823508 3.118011046134544 0  -3.325878449210181 -2.222280932078408 0  -2.22228093207841 -3.32587844921018 0  -1.944495815568609 -2.910143643058908 0  -2.910143643058909 -1.944495815568607 0  2.222280932078408 -3.325878449210181 0  3.32587844921018 -2.22228093207841 0  2.910143643058908 -1.944495815568609 0  1.944495815568607 -2.910143643058909 0  6 0 0  3.673940397442059e-16 6 0  -1.102182119232618e-15 -6 0  -6 7.347880794884119e-16 0  2.125000000000002 3.680607966083863 0  1.879726933430758 3.811709151513924 0  1.626404587551632 3.926488013172969 0  1.366117727538438 4.024453050354198 0  1.099980941685715 4.105184761728541 0  0.7803612880645132 3.923141121612923 0  1.017901686994028 3.609207136701177 0  1.297938964040597 3.518217509709316 0  1.569974015765355 3.405536901844055 0  1.832329655613583 3.271860026522988 0  2.222280932078409 3.325878449210181 0  -2.587236073287063 3.37175169623775 0  -2.802219714175291 3.195319181785655 0  -3.005203820042827 3.005203820042828 0  -3.195319181785652 2.802219714175295 0  -3.371751696237749 2.587236073287064 0  -3.325878449210182 2.222280932078409 0  -2.944938490802794 2.321602309911878 0  -2.753709410383821 2.545502795748531 0  -2.545502795748532 2.753709410383821 0  -2.321602309911876 2.944938490802795 0  -2.222280932078408 3.32587844921018 0  -3.173413361164941 -2.435045716034882 0  -3.00735922991591 -2.637383260400275 0  -2.828427124746191 -2.828427124746189 0  -2.637383260400277 -3.007359229915908 0  -2.435045716034884 -3.17341336116494 0  -2.083388373823509 -3.118011046134544 0  -2.166828822584418 -2.748609258082608 0  -2.375802609365296 -2.5701287830249 0  -2.5701287830249 -2.375802609365296 0  -2.748609258082608 -2.166828822584419 0  -3.118011046134545 -2.083388373823508 0  2.435045716034881 -3.173413361164942 0  2.637383260400275 -3.00735922991591 0  2.82842712474619 -2.82842712474619 0  3.00735922991591 -2.637383260400274 0  3.173413361164941 -2.435045716034882 0  3.118011046134544 -2.083388373823509 0  2.748609258082607 -2.166828822584419 0  2.570128783024899 -2.375802609365297 0  2.375802609365296 -2.5701287830249 0  2.16682882258442 -2.748609258082607 0  2.083388373823508 -3.118011046134545 0  5.992772737231034 0.2944060459645064 0  5.971108360033181 0.5881028419773635 0  5.935059059788686 0.8803828467321695 0  5.884711682419383 1.17054193209677 0  5.820187519167264 1.457881079419583 0  5.741642014393253 1.741708063526773 0  5.649264391098125 2.02133912035332 0  5.54327719506772 2.296100594190538 0  5.423935758740661 2.565330560581691 0  5.291527586090131 2.828380420955986 0  5.146371660001632 3.084616465159329 0  4.988817673815273 3.333421398117612 0  4.81924518888387 3.574195826954599 0  4.638062720176423 3.806359704981872 0  4.445706752129754 4.029353729082111 0  4.242640687119286 4.242640687119285 0  4.029353729082112 4.445706752129753 0  3.806359704981876 4.63806272017642 0  3.574195826954599 4.819245188883871 0  3.333421398117613 4.988817673815271 0  3.084616465159331 5.146371660001632 0  2.828380420955987 5.29152758609013 0  2.565330560581695 5.423935758740659 0  2.296100594190542 5.543277195067719 0  2.02133912035332 5.649264391098125 0  1.741708063526774 5.741642014393253 0  1.457881079419585 5.820187519167264 0  1.170541932096772 5.884711682419382 0  0.8803828467321739 5.935059059788685 0  0.5881028419773627 5.971108360033181 0  0.2944060459645081 5.992772737231034 0  0.2944060459645067 -5.992772737231034 0  0.5881028419773613 -5.971108360033181 0  0.8803828467321685 -5.935059059788686 0  1.170541932096767 -5.884711682419383 0  1.457881079419579 -5.820187519167265 0  1.741708063526771 -5.741642014393254 0  2.021339120353316 -5.649264391098126 0  2.296100594190533 -5.543277195067724 0  2.565330560581686 -5.423935758740662 0  2.828380420955979 -5.291527586090133 0  3.084616465159323 -5.146371660001637 0  3.333421398117605 -4.988817673815277 0  3.574195826954591 -4.819245188883876 0  3.806359704981865 -4.638062720176428 0  4.029353729082103 -4.445706752129762 0  4.242640687119277 -4.242640687119294 0  4.445706752129746 -4.02935372908212 0  4.638062720176414 -3.806359704981881 0  4.819245188883862 -3.574195826954609 0  4.988817673815266 -3.333421398117622 0  5.146371660001628 -3.084616465159337 0  5.291527586090127 -2.828380420955992 0  5.423935758740658 -2.565330560581697 0  5.543277195067718 -2.296100594190544 0  5.649264391098123 -2.021339120353324 0  5.741642014393252 -1.741708063526779 0  5.820187519167263 -1.457881079419587 0  5.884711682419383 -1.170541932096771 0  5.935059059788686 -0.8803828467321708 0  5.971108360033181 -0.5881028419773651 0  5.992772737231034 -0.2944060459645078 0  -0.294406045964506 5.992772737231034 0  -0.5881028419773605 5.971108360033181 0  -0.8803828467321717 5.935059059788685 0  -1.17054193209677 5.884711682419383 0  -1.457881079419582 5.820187519167264 0  -1.741708063526773 5.741642014393253 0  -2.021339120353318 5.649264391098125 0  -2.29610059419054 5.54327719506772 0  -2.565330560581693 5.42393575874066 0  -2.828380420955986 5.291527586090131 0  -3.084616465159328 5.146371660001633 0  -3.333421398117611 4.988817673815273 0  -3.574195826954597 4.819245188883872 0  -3.806359704981873 4.638062720176421 0  -4.02935372908211 4.445706752129755 0  -4.242640687119285 4.242640687119286 0  -4.445706752129753 4.029353729082112 0  -4.63806272017642 3.806359704981876 0  -4.819245188883871 3.574195826954599 0  -4.988817673815271 3.333421398117613 0  -5.146371660001632 3.084616465159331 0  -5.29152758609013 2.828380420955988 0  -5.423935758740659 2.565330560581695 0  -5.543277195067719 2.296100594190542 0  -5.649264391098125 2.02133912035332 0  -5.741642014393253 1.741708063526775 0  -5.820187519167264 1.457881079419585 0  -5.884711682419382 1.170541932096772 0  -5.935059059788685 0.8803828467321744 0  -5.971108360033181 0.5881028419773631 0  -5.992772737231034 0.2944060459645085 0  -5.992772737231034 -0.2944060459645075 0  -5.971108360033181 -0.5881028419773624 0  -5.935059059788686 -0.8803828467321688 0  -5.884711682419383 -1.170541932096767 0  -5.820187519167265 -1.457881079419581 0  -5.741642014393254 -1.741708063526771 0  -5.649264391098126 -2.021339120353317 0  -5.543277195067722 -2.296100594190535 0  -5.423935758740662 -2.565330560581688 0  -5.291527586090133 -2.82838042095598 0  -5.146371660001636 -3.084616465159324 0  -4.988817673815276 -3.333421398117608 0  -4.819245188883873 -3.574195826954594 0  -4.638062720176427 -3.806359704981867 0  -4.445706752129761 -4.029353729082104 0  -4.242640687119291 -4.242640687119279 0  -4.029353729082119 -4.445706752129747 0  -3.80635970498188 -4.638062720176416 0  -3.574195826954607 -4.819245188883865 0  -3.333421398117619 -4.988817673815268 0  -3.084616465159336 -5.146371660001629 0  -2.82838042095599 -5.291527586090128 0  -2.565330560581696 -5.423935758740659 0  -2.296100594190541 -5.543277195067719 0  -2.021339120353323 -5.649264391098123 0  -1.741708063526776 -5.741642014393253 0  -1.457881079419584 -5.820187519167264 0  -1.17054193209677 -5.884711682419383 0  -0.8803828467321692 -5.935059059788686 0  -0.588102841977362 -5.971108360033181 0  -0.2944060459645061 -5.992772737231034 0  1.89540611400195 3.545871335000097 0  1.167055149880347 3.847564182506784 0  1.520313905171703 3.670362448929928 0  0.9589086489177707 3.805692936763992 0  2.01298047451138 3.36908209088775 0  1.714483290676885 3.674661418214848 0  1.386055246315644 3.810700768452946 0  -2.55061743389302 3.108073127725976 0  -3.108073127725973 2.550617433893022 0  -2.809173799960883 2.809173799960884 0  -3.1490433582066 2.342291709851603 0  -2.342291709851602 3.1490433582066 0  -2.738840122788772 2.990208065390999 0  -2.990208065390998 2.738840122788773 0  -2.392407392152564 -2.915156841980633 0  -2.915156841980635 -2.392407392152562 0  -2.632780978595949 -2.632780978595948 0  -2.193352175472404 -2.948725006331014 0  -2.948725006331014 -2.193352175472401 0  -2.570325696459987 -2.806253581863683 0  -2.806253581863684 -2.570325696459986 0  2.915156841980636 -2.392407392152562 0  2.392407392152562 -2.915156841980635 0  2.632780978595948 -2.632780978595949 0  2.193352175472401 -2.948725006331014 0  2.948725006331013 -2.193352175472401 0  2.806253581863683 -2.570325696459987 0  2.570325696459986 -2.806253581863684 0  0.9263352927180273 3.393957486858484 0  -1.937335809324018 -2.631088940312109 0  2.612793234267482 -1.885183125078725 0  -2.838589193153966 2.075133908665829 0  2.732745380110731 -1.649508450119179 0  2.472236360829308 -1.612229492446973 0  -2.970585943209243 1.850300633543231 0  -2.726587696157832 1.840985452646705 0  -1.730204738452083 -2.777868335195933 0  -1.71681096286675 -2.509109012691951 0  0.760022459802859 3.46731047029457 0  0.8351297793620697 3.189780341335042 0  0.1438308171717265 -5.742452200442717 0  5.711970747236112 0.1527868643429721 0  -0.1802850683404388 5.776167056982302 0  -5.7550125556204 -0.1599012568592413 0  2.600007131978026 -1.385692405812663 0  2.33800478665341 -1.347849053721198 0  -2.863475799577175 1.625087273314871 0  -2.620203011212733 1.611413719081398 0  -1.508654444182428 -2.657871830389048 0  -1.492922750222642 -2.390054891014843 0  0.6722179577074354 3.281287097032123 0  0.7037973136328902 3.008066684775706 0  -2.755744533164518 1.395065962903648 0  -2.512963741112804 1.379839729120119 0  2.465545444387334 -1.120348765690766 0  2.203257739342479 -1.083585619265134 0  2.388227922593352 2.836430060714149 0  -3.148267833162851 -1.82138306634007 0  1.822683383523459 -3.123279837
[...]
<PointData  Vectors="f_22"> 
<DataArray  type="Float64"  Name="f_22"  NumberOfComponents="3" format="ascii">-9.6470495887687080e-01 1.3114649202074082e+00 0.0000000000000000e+00  -1.3931470635098635e+00 8.4245899250354861e-01 0.0000000000000000e+00  -1.2129071080081266e+00 7.6780115845320596e-01 0.0000000000000000e+00  -8.2675526923540021e-01 1.1735152305659371e+00 0.0000000000000000e+00  -1.3889255825490077e-01 2.0786740307563623e-01 0.0000000000000000e+00  -2.0786740307563623e-01 1.3889255825490032e-01 0.0000000000000000e+00  -2.0786740307563667e-01 1.3889255825490054e-01 0.0000000000000000e+00  -1.3889255825490054e-01 2.0786740307563623e-01 0.0000000000000000e+00  0.0000000000000000e+00 0.0000000000000000e+00 0.0000000000000000e+00  0.0000000000000000e+00 0.0000000000000000e+00 0.0000000000000000e+00  0.0000000000000000e+00 0.0000000000000000e+00 0.0000000000000000e+00  0.0000000000000000e+00 0.0000000000000000e+00 0.0000000000000000e+00  0.0000000000000000e+00 0.0000000000000000e+00 0.0000000000000000e+00  0.0000000000000000e+00 0.0000000000000000e+00 0.0000000000000000e+00  0.0000000000000000e+00 0.0000000000000000e+00 0.0000000000000000e+00  0.0000000000000000e+00 0.0000000000000000e+00 0.0000000000000000e+00  0.0000000000000000e+00 0.0000000000000000e+00 0.0000000000000000e+00  0.0000000000000000e+00 0.0000000000000000e+00 0.0000000000000000e+00  0.0000000000000000e+00 0.0000000000000000e+00 0.0000000000000000e+00  0.0000000000000000e+00 0.0000000000000000e+00 0.0000000000000000e+00  -1.0484133611649398e+00 1.2455622500489818e+00 0.0000000000000000e+00  -1.1276322964851531e+00 1.1743258911136500e+00 0.0000000000000000e+00  -1.2020225371945588e+00 1.0980608884267793e+00 0.0000000000000000e+00  -1.2712655328618379e+00 1.0170938204382898e+00 0.0000000000000000e+00  -1.3350647743491693e+00 9.3177140056360042e-01 0.0000000000000000e+00  -1.3030270857589956e+00 8.0513007547837745e-01 0.0000000000000000e+00  -1.1489271355903909e+00 8.6059787861857018e-01 0.0000000000000000e+00  -1.0778636453246977e+00 9.4808872668441624e-01 0.0000000000000000e+00  -1.0001547672595450e+00 1.0297342924787591e+00 0.0000000000000000e+00  -9.1627960246902618e-01 1.1050312039385703e+00 0.0000000000000000e+00  -8.9573011405613523e-01 1.2424900753866730e+00 0.0000000000000000e+00  -1.5219035725218033e-01 1.9833833507280874e-01 0.0000000000000000e+00  -1.6483645377501732e-01 1.8795995186974457e-01 0.0000000000000000e+00  -1.7677669529663698e-01 1.7677669529663698e-01 0.0000000000000000e+00  -1.8795995186974412e-01 1.6483645377501732e-01 0.0000000000000000e+00  -1.9833833507280874e-01 1.5219035725218033e-01 0.0000000000000000e+00  -2.0786740307563667e-01 1.3889255825490032e-01 0.0000000000000000e+00  -1.9632923272018665e-01 1.5477348732745888e-01 0.0000000000000000e+00  -1.8358062735892133e-01 1.6970018638323525e-01 0.0000000000000000e+00  -1.6970018638323570e-01 1.8358062735892133e-01 0.0000000000000000e+00  -1.5477348732745799e-01 1.9632923272018576e-01 0.0000000000000000e+00  -1.3889255825490032e-01 2.0786740307563623e-01 0.0000000000000000e+00  0.0000000000000000e+00 0.0000000000000000e+00 0.0000000000000000e+00  0.0000000000000000e+00 0.0000000000000000e+00 0.0000000000000000e+00  0.0000000000000000e+00 0.0000000000000000e+00 0.0000000000000000e+00  0.0000000000000000e+00 0.0000000000000000e+00 0.0000000000000000e+00  0.0000000000000000e+00 0.0000000000000000e+00 0.0000000000000000e+00  0.0000000000000000e+00 0.0000000000000000e+00 0.0000000000000000e+00  0.0000000000000000e+00 0.0000000000000000e+00 0.0000000000000000e+00  0.0000000000000000e+00 0.0000000000000000e+00 0.0000000000000000e+00  0.0000000000000000e+00 0.0000000000000000e+00 0.0000000000000000e+00  0.0000000000000000e+00 0.0000000000000000e+00 0.0000000000000000e+00  0.0000000000000000e+00 0.0000000000000000e+00 0.0000000000000000e+00  0.0000000000000000e+00 0.0000000000000000e+00 0.0000000000000000e+00  0.0000000000000000e+00 0.0000000000000000e+00 0.0000000000000000e+00  0.0000000000000000e+00 0.0000000000000000e+00 0.0000000000000000e+00  0.0000000000000000e+00 0.0000000000000000e+00 0.0000000000000000e+00  0.0000000000000000e+00 0.0000000000000000e+00 0.0000000000000000e+00  0.0000000000000000e+00 0.0000000000000000e+00 0.0000000000000000e+00  0.0000000000000000e+00 0.0000000000000000e+00 0.0000000000000000e+00  0.0000000000000000e+00 0.0000000000000000e+00 0.0000000000000000e+00  0.0000000000000000e+00 0.0000000000000000e+00 0.0000000000000000e+00  0.0000000000000000e+00 0.0000000000000000e+00 0.0000000000000000e+00  0.0000000000000000e+00 0.0000000000000000e+00 0.0000000000000000e+00  0.0000000000000000e+00 0.0000000000000000e+00 0.0000000000000000e+00  0.0000000000000000e+00 0.0000000000000000e+00 0.0000000000000000e+00  0.0000000000000000e+00 0.0000000000000000e+00 0.0000000000000000e+00  0.0000000000000000e+00 0.0000000000000000e+00 0.0000000000000000e+00  0.0000000000000000e+00 0.0000000000000000e+00 0.0000000000000000e+00  0.0000000000000000e+00 0.0000000000000000e+00 0.0000000000000000e+00  0.0000000000000000e+00 0.0000000000000000e+00 0.0000000000000000e+00  0.0000000000000000e+00 0.0000000000000000e+00 0.0000000000000000e+00  0.0000000000000000e+00 0.0000000000000000e+00 0.0000000000000000e+00  0.0000000000000000e+00 0.0000000000000000e+00 0.0000000000000000e+00  0.0000000000000000e+00 0.0000000000000000e+00 0.0000000000000000e+00  0.0000000000000000e+00 0.0000000000000000e+00 0.0000000000000000e+00  0.0000000000000000e+00 0.0000000000000000e+00 0.0000000000000000e+00  0.0000000000000000e+00 0.0000000000000000e+00 0.0000000000000000e+00  0.0000000000000000e+00 0.0000000000000000e+00 0.0000000000000000e+00  0.0000000000000000e+00 0.0000000000000000e+00 0.0000000000000000e+00  0.0000000000000000e+00 0.0000000000000000e+00 0.0000000000000000e+00  0.0000000000000000e+00 0.0000000000000000e+00 0.0000000000000000e+00  0.0000000000000000e+00 0.0000000000000000e+00 0.0000000000000000e+00  0.0000000000000000e+00 0.0000000000000000e+00 0.0000000000000000e+00  0.0000000000000000e+00 0.0000000000000000e+00 0.0000000000000000e+00  0.0000000000000000e+00 0.0000000000000000e+00 0.0000000000000000e+00  0.0000000000000000e+00 0.0000000000000000e+00 0.0000000000000000e+00  0.0000000000000000e+00 0.0000000000000000e+00 0.0000000000000000e+00  0.0000000000000000e+00 0.0000000000000000e+00 0.0000000000000000e+00  0.0000000000000000e+00 0.0000000000000000e+00 0.0000000000000000e+00  0.0000000000000000e+00 0.0000000000000000e+00 0.0000000000000000e+00  0.0000000000000000e+00 0.0000000000000000e+00 0.0000000000000000e+00  0.0000000000000000e+00 0.0000000000000000e+00 0.0000000000000000e+00  0.0000000000000000e+00 0.0000000000000000e+00 0.0000000000000000e+00  0.0000000000000000e+00 0.0000000000000000e+00 0.0000000000000000e+00  0.0000000000000000e+00 0.0000000000000000e+00 0.0000000000000000e+00  0.0000000000000000e+00 0.0000000000000000e+00 0.0000000000000000e+00  0.0000000000000000e+00 0.0000000000000000e+00 0.0000000000000000e+00  0.0000000000000000e+00 0.0000000000000000e+00 0.0000000000000000e+00  0.0000000000000000e+00 0.0000000000000000e+00 0.0000000000000000e+00  0.0000000000000000e+00 0.0000000000000000e+00 0.0000000000000000e+00  0.0000000000000000e+00 0.0000000000000000e+00 0.0000000000000000e+00  0.0000000000000000e+00 0.0000000000000000e+00 0.0000000000000000e+00  0.0000000000000000e+00 0.0000000000000000e+00 0.0000000000000000e+00  0.0000000000000000e+00 0.0000000000000000e+00 0.0000000000000000e+00  0.0000000000000000e+00 0.0000000000000000e+00 0.0000000000000000e+00  0.0000000000000000e+00 0.0000000000000000e+00 0.0000000000000000e+00  0.0000000000000000e+00 0.0000000000000000e+00 0.0000000000000000e+00  0.0000000000000000e+00 0.0000000000000000e+00 0.0000000000000000e+00  0.0000000000000000e+00 0.0000000000000000e+00 0.0000000000000000e+00  0.0000000000000000e+00 0.0000000000000000e+00 0.0000000000000000e+00  0.0000000000000000e+00 0.0000000000000000e+00 0.0000000000000000e+00  0.0000000000000000e+00 0.0000000000000000e+00 0.0000000000000000e+00  0.0000000000000000e+00 0.0000000000000000e+00 0.0000000000000000e+00  0.0000000000000000e+00 0.0000000000000000e+00 0.0000000000000000e+00  0.0000000000000000e+00 0.0000000000000000e+00 0.0000000000000000e+00  0.0000000000000000e+00 0.0000000000000000e+00 0.0000000000000000e+00  0.0000000000000000e+00 0.0000000000000000e+00 0.0000000000000000e+00  0.0000000000000000e+00 0.0000000000000000e+00 0.0000000000000000e+00  0.0000000000000000e+00 0.0000000000000000e+00 0.0000000000000000e+00  0.0000000000000000e+00 0.0000000000000000e+00 0.0000000000000000e+00  0.0000000000000000e+00 0.0000000000000000e+00 0.0000000000000000e+00  0.0000000000000000e+00 0.0000000000000000e+00 0.0000000000000000e+00  0.0000000000000000e+00 0.0000000000000000e+00 0.0000000000000000e+00  0.0000000000000000e+00 0.0000000000000000e+00 0.0000000000000000e+00  0.0000000000000000e+00 0.0000000000000000e+00 0.0000000000000000e+00  0.0000000000000000e+00 0.0000000000000000e+00 0.0000000000000000e+00  0.0000000000000000e+00 0.0000000000000000e+00 0.0000000000000000e+00  0.0000000000000000e+00 0.0000000000000000e+00 0.0000000000000000e+00  0.0000000000000000e+00 0.0000000000000000e+00 0.0000000000000000e+00  0.0000000000000000e+00 0.0000000000000000e+00 0.0000000000000000e+00  0.0000000000000000e+00 0.0000000000000000e+00 0.0000000000000000e+00  0.0000000000000000e+00 0.0000000000000000e+00 0.0000000000000000e+00  0.0000000000000000e+00 0.0000000000000000e+00 0.0000000000000000e+00  0.0000000000000000e+00 0.0000000000000000e+00 0.0000000000000000e+00  0.0000000000000000e+00 0.0000000000000000e+00 0.0000000000000000e+00  0.0000000000000000e+00 0.0000000000000000e+00 0.0000000000000000e+00  0.0000000000000000e+00 0.0000000000000000e+00 0.0000000000000000e+00  0.0000000000000000e+00 0.0000000000000000e+00 0.0000000000000000e+00  0.0000000000000000e+00 0.0000000000000000e+00 0.0000000000000000e+00  0.0000000000000000e+00 0.0000000000000000e+00 0.0000000000000000e+00  0.0000000000000000e+00 0.0000000000000000e+00 0.0000000000000000e+00  0.0000000000000000e+00 0.0000000000000000e+00 0.0000000000000000e+00  0.0000000000000000e+00 0.0000000000000000e+00 0.0000000000000000e+00  0.0000000000000000e+00 0.0000000000000000e+00 0.0000000000000000e+00  0.0000000000000000e+00 0.0000000000000000e+00 0.0000000000000000e+00  0.0000000000000000e+00 0.0000000000000000e+00 0.0000000000000000e+00  0.0000000000000000e+00 0.0000000000000000e+00 0.0000000000000000e+00  0.0000000000000000e+00 0.0000000000000000e+00 0.0000000000000000e+00  0.0000000000000000e+00 0.0000000000000000e+00 0.0000000000000000e+00  0.0000000000000000e+00 0.0000000000000000e+00 0.0000000000000000e+00  0.0000000000000000e+00 0.0000000000000000e+00 0.0000000000000000e+00  0.0000000000000000e+00 0.0000000000000000e+00 0.0000000000000000e+00  0.0000000000000000e+00 0.0000000000000000e+00 0.0000000000000000e+00  0.0000000000000000e+00 0.0000000000000000e+00 0.0000000000000000e+00  0.0000000000000000e+00 0.0000000000000000e+00 0.0000000000000000e+00  0.0000000000000000e+00 0.0000000000000000e+00 0.0000000000000000e+00  0.0000000000000000e+00 0.0000000000000000e+00 0.0000000000000000e+00  0.0000000000000000e+00 0.0000000000000000e+00 0.0000000000000000e+00  0.0000000000000000e+00 0.0000000000000000e+00 0.0000000000000000e+00  0.0000000000000000e+00 0.0000000000000000e+00 0.0000000000000000e+00  0.0000000000000000e+00 0.0000000000000000e+00 0.0000000000000000e+00  0.0000000000000000e+00 0.0000000000000000e+00 0.0000000000000000e+00  0.0000000000000000e+00 0.0000000000000000e+00 0.0000000000000000e+00  0.0000000000000000e+00 0.0000000000000000e+00 0.0000000000000000e+00  0.0000000000000000e+00 0.0000000000000000e+00 0.0000000000000000e+00  0.0000000000000000e+00 0.0000000000000000e+00 0.0000000000000000e+00  0.0000000000000000e+00 0.0000000000000000e+00 0.0000000000000000e+00  0.0000000000000000e+00 0.0000000000000000e+00 0.0000000000000000e+00  0.0000000000000000e+00 0.0000000000000000e+00 0.0000000000000000e+00  0.0000000000000000e+00 0.0000000000000000e+00 0.0000000000000000e+00  0.0000000000000000e+00 0.0000000000000000e+00 0.0000000000000000e+00  0.0000000000000000e+00 0.0000000000000000e+00 0.0000000000000000e+00  0.0000000000000000e+00 0.0000000000000000e+00 0.0000000000000000e+00  0.0000000000000000e+00 0.0000000000000000e+00 0.0000000000000000e+00  0.0000000000000000e+00 0.0000000000000000e+00 0.0000000000000000e+00  0.0000000000000000e+00 0.0000000000000000e+00 0.0000000000000000e+00  0.0000000000000000e+00 0.0000000000000000e+00 0.0000000000000000e+00  0.0000000000000000e+00 0.0000000000000000e+00 0.0000000000000000e+00  0.0000000000000000e+00 0.0000000000000000e+00 0.0000000000000000e+00  0.0000000000000000e+00 0.0000000000000000e+00 0.0000000000000000e+00  0.0000000000000000e+00 0.0000000000000000e+00 0.0000000000000000e+00  0.0000000000000000e+00 0.0000000000000000e+00 0.0000000000000000e+00  0.0000000000000000e+00 0.0000000000000000e+00 0.0000000000000000e+00  0.0000000000000000e+00 0.0000000000000000e+00 0.0000000000000000e+00  0.0000000000000000e+00 0.0000000000000000e+00 0.0000000000000000e+00  0.0000000000000000e+00 0.0000000000000000e+00 0.0000000000000000e+00  0.0000000000000000e+00 0.0000000000000000e+00 0.0000000000000000e+00  -1.0197507279786859e+00 1.1534639428475346e+00 0.0000000000000000e+00  -1.2253522422722176e+00 9.3240734052615115e-01 0.0000000000000000e+00  -1.1124670734242459e+00 1.0375814703339801e+00 0.0000000000000000e+00  -1.2344435265546321e+00 8.5696793043297848e-01 0.0000000000000000e+00  -9.3574453181963380e-01 1.1757299154153493e+00 0.0000000000000000e+00  -1.0917702911867992e+00 1.1043357217548619e+00 0.0000000000000000e+00  -1.1842704501443428e+00 1.0044471865892637e+00 0.0000000000000000e+00  -1.5821004174045689e-01 1.9291628574534025e-01 0.0000000000000000e+00  -1.9291628574534042e-01 1.5821004174045716e-01 0.0000000000000000e+00  -1.7639282136493453e-01 1.7639282136493448e-01 0.0000000000000000e+00  -2.0031835187558605e-01 1.4893953437920032e-01 0.0000000000000000e+00  -1.4893953437920010e-01 2.0031835187558558e-01 0.0000000000000000e+00  -1.6851442632878585e-01 1.8395448352731567e-01 0.0000000000000000e+00  -1.8395448352731567e-01 1.6851442632878580e-01 0.0000000000000000e+00  0.0000000000000000e+00 0.0000000000000000e+00 0.0000000000000000e+00  0.0000000000000000e+00 0.0000000000000000e+00 0.0000000000000000e+00  0.0000000000000000e+00 0.0000000000000000e+00 0.0000000000000000e+00  0.0000000000000000e+00 0.0000000000000000e+00 0.0000000000000000e+00  0.0000000000000000e+00 0.0000000000000000e+00 0.0000000000000000e+00  0.0000000000000000e+00 0.0000000000000000e+00 0.0000000000000000e+00  0.0000000000000000e+00 0.0000000000000000e+00 0.0000000000000000e+00  0.0000000000000000e+00 0.0000000000000000e+00 0.0000000000000000e+00  0.0000000000000000e+00 0.0000000000000000e+00 0.0000000000000000e+00  0.0000000000000000e+00 0.0000000000000000e+00 0.0000000000000000e+00  0.0000000000000000e+00 0.0000000000000000e+00 0.0000000000000000e+00  0.0000000000000000e+00 0.0000000000000000e+00 0.0000000000000000e+00  0.0000000000000000e+00 0.0000000000000000e+00 0.0000000000000000e+00  0.0000000000000000e+00 0.0000000000000000e+00 0.0000000000000000e+00  -1.0037256769460268e+00 7.5916046848984131e-01 0.0000000000000000e+00  -1.5249550791481126e-02 1.4435835518156751e-02 0.0000000000000000e+00  -3.4920241575239312e-02 3.7587373092612147e-02 0.0000000000000000e+00  -1.9094012526816012e-01 1.5235618601530376e-01 0.0000000000000000e+00  -5.5715475022671414e-02 6.0923807705958559e-02 0.0000000000000000e+00  -7.1900381323785803e-02 7.7523867937490679e-02 0.0000000000000000e+00  -1.8219852415913840e-01 1.4005041511081151e-01 0.0000000000000000e+00  -1.8262033517475773e-01 1.5135275131546702e-01 0.0000000000000000e+00  -1.9557640947936352e-02 1.8668024700955518e-02 0.0000000000000000e+00  -3.0263104953283111e-02 2.8731215006036953e-02 0.0000000000000000e+00  -9.4644222996257910e-01 6.7292112617818300e-01 0.0000000000000000e+00  -8.5548802696001036e-01 6.6955845692447957e-01 0.0000000000000000e+00  -2.3876556017390555e-03 2.3488768891178017e-03 0.0000000000000000e+00  -2.7078282537038204e-02 3.2683581651924344e-02 0.0000000000000000e+00  -3.2970852152905038e-02 2.6077825106457113e-02 0.0000000000000000e+00  -6.7254098406478611e-03 5.4797470705138492e-03 0.0000000000000000e+00  -9.2035085392724536e-02 1.0048588146745470e-01 0.0000000000000000e+00  -1.0501373380713766e-01 1.1314364023393360e-01 0.0000000000000000e+00  -1.7161329494760688e-01 1.3909498955774077e-01 0.0000000000000000e+00  -1.7689219365956632e-01 1.5031755558579774e-01 0.0000000000000000e+00  -3.3212342864790224e-02 3.1749875798933798e-02 0.0000000000000000e+00  -4.3554957604713909e-02 4.1465013697263089e-02 0.0000000000000000e+00  -7.9268969688415147e-01 5.9759063709788696e-01 0.0000000000000000e+00  -7.3480248603963172e-01 5.9109337643573956e-01 0.0000000000000000e+00  -1.6484421748692976e-01 1.3796908077291115e-01 0.0000000000000000e+00  -1.7257091535100397e-01 1.4916576335028528e-01 0.0000000000000000e+00  -1.2541704936088169e-01 1.3667809313929169e-01 0.0000000000000000e+00  -1.3666707024415439e-01 1.4698363496229683e-01 0.0000000000000000e+00  -7.4618164585942659e-01 1.0027425256841702e+00 0.0000000000000000e+00  -1.3841282668639314e-02 1.2213165977403271e-02 0.0000000000000000e+00  -1.1063360857784151e-02 1.1121575208662204e-02 0.0000000000000000e+00  -2.1628653724766952e-02 2.1848392113026853e-02 0.0000000000000000e+00  -1.5657042554909800e-01 2.0031559536525936e-01 0.0000000000000000e+00  -1.7490404429746753e-01 2.0565889798481732e-01 0.0000000000000000e+00  -2.2435996655619062e-02 2.2523769380008204e-02 0.0000000000000000e+00  -1.7947973754964228e-01 2.0051487531606035e-01 0.0000000000000000e+00  -2.3829797445272326e-02 2.1275793233820551e-02 0.0000000000000000e+00  -2.8412217943890525e-02 2.5066381464612490e-02 0.0000000000000000e+00  -1.5716488812207927e-01 1.2693637638625815e-01 0.0000000000000000e+00  -1.1416767450413172e-01 1.2607364339244634e-01 0.0000000000000000e+00  -7.0591860585713695e-01 9.1378471184253884e-01 0.0000000000000000e+00  -6.3571920186265907e-01 8.1863263694660782e-01 0.0000000000000000e+00  -3.3458497725184166e-02 3.3659013628737078e-02 0.0000000000000000e+00  -3.0770470146804792e-02 3.0799822696127889e-02 0.0000000000000000e+00  -2.0014286965896008e-01 2.1041432690429332e-01 0.0000000000000000e+00  -2.0246954773642009e-01 2.0626854393660998e-01 0.0000000000000000e+00  -2.2025688590940362e-03 2.1546897464471515e-03 0.0000000000000000e+00  -5.0853205356396237e-02 3.7290171619765035e-02 0.0000000000000000e+00  -3.9299928692242601e-02 3.4952696112357219e-02 0.0000000000000000e+00  -4.0870056472270169e-02 3.5951173581040989e-02 0.0000000000000000e+00  -6.0952512349032062e-01 7.5680223076192699e-01 0.0000000000000000e+00  -5.4885771932988747e-01 6.8501597021536775e-01 0.0000000000000000e+00  -4.1239501305046729e-02 4.1305681842701884e-02 0.0000000000000000e+00  -3.6660383123052524e-02 3.6567050625803267e-02 0.0000000000000000e+00  -2.2463546985059718e-01 2.1959457712365885e-01 0.0000000000000000e+00  -2.2678337630549464e-01 2.1615299486609782e-01 0.0000000000000000e+00  -1.0372452592719055e-02 8.1929763143212785e-03 0.0000000000000000e+00  -1.7531113186129876e-02 2.0772859443481357e-02 0.0000000000000000e+00  -5.1998892604663650e-02 4.6041543030506456e-02 0.0000000000000000e+00  -5.1874538580110645e-02 4.5435674632921252e-02 0.0000000000000000e+00  -5.2990566868278388e-01 6.4116995402519406e-01 0.0000000000000000e+00  -4.7736184670696918e-01 5.8236738672633015e-01 0.0000000000000000e+00  -6.0023958617666318e-03 5.7954909773028458e-03 0.0000000000000000e+00  -1.0855655890413654e+00 6.9113532283824985e-01 0.0000000000000000e+00  -4.6409605691093571e-02 4.6277137411990063e-02 0.0000000000000000e+00  -4.0592255549263948e-02 4.0337442525465790e-02 0.0000000000000000e+00  -5.3226543501859860e-02 5.3299013948916993