<?xml version="1.0"?>
<VTKFile type="UnstructuredGrid"  version="0.1"  >
<UnstructuredGrid>
<Piece  NumberOfPoints="25926" NumberOfCells="51258">
<Points>
<DataArray  type="Float64"  NumberOfComponents="3"  format="ascii">-80 9.797174393178826e-15 0  -73.91036260090294 30.61467458920719 0  -56.5685424949238 56.5685424949238 0  -30.61467458920718 73.91036260090294 0  4.898587196589413e-15 80 0  30.61467458920719 73.91036260090294 0  56.5685424949238 56.5685424949238 0  73.91036260090294 30.61467458920718 0  80 0 0  60 0 0  3.67394039744206e-15 60 0  -60 7.34788079488412e-15 0  74.43050334751858 3.217168232316479 0  78.9263055631405 3.411493830241636 0  74.22392045496642 27.05198019174971 0  69.99597561892402 25.511044611207 0  67.53366165564643 31.45559637617242 0  71.61287611806803 33.35559884184727 0  58.2216162990381 53.39703545635825 0  54.90519511744733 50.35543217086949 0  50.3554321708695 54.90519511744733 0  53.39703545635826 58.2216162990381 0  33.35559884184727 71.61287611806803 0  31.45559637617243 67.53366165564643 0  25.51104461120701 69.99597561892402 0  27.05198019174971 74.22392045496642 0  3.411493830241639 78.9263055631405 0  3.217168232316482 74.43050334751858 0  -3.217168232316473 74.43050334751858 0  -3.411493830241628 78.9263055631405 0  -27.0519801917497 74.22392045496642 0  -25.51104461120699 69.99597561892402 0  -31.45559637617242 67.53366165564643 0  -33.35559884184726 71.61287611806803 0  -53.39703545635824 58.22161629903811 0  -50.35543217086948 54.90519511744733 0  -54.90519511744733 50.3554321708695 0  -58.2216162990381 53.39703545635826 0  -71.61287611806802 33.35559884184728 0  -67.53366165564643 31.45559637617243 0  -69.99597561892402 25.51104461120701 0  -74.2239204549664 27.05198019174971 0  -78.9263055631405 3.411493830241644 0  -74.43050334751858 3.217168232316487 0  73.33468844596322 29.37726111354676 0  69.15739606612988 27.70387282226878 0  56.51022656189983 55.20502054997128 0  53.29128960584224 52.06043077180836 0  31.08259495026659 72.62831604242012 0  29.31206738980837 68.49126006532025 0  0.9229200218801327 78.99460879473493 0  0.8703486282287327 74.49491588870572 0  -29.37726111354674 73.33468844596324 0  -27.70387282226876 69.15739606612989 0  -55.20502054997127 56.51022656189983 0  -52.06043077180836 53.29128960584225 0  -72.62831604242012 31.0825949502666 0  -68.49126006532025 29.31206738980837 0  -78.99460879473493 0.9229200218801377 0  -74.49491588870572 0.8703486282287374 0  74.49491588870572 0.8703486282287203 0  78.99460879473493 0.9229200218801196 0  68.49126006532026 29.31206738980836 0  72.62831604242014 31.08259495026658 0  52.06043077180837 53.29128960584224 0  55.20502054997129 56.51022656189982 0  27.70387282226877 69.15739606612989 0  29.37726111354675 73.33468844596324 0  -0.8703486282287237 74.49491588870572 0  -0.9229200218801231 78.99460879473493 0  -29.31206738980836 68.49126006532026 0  -31.08259495026658 72.62831604242014 0  -53.29128960584224 52.06043077180836 0  -56.51022656189983 55.20502054997128 0  -69.15739606612988 27.70387282226878 0  -73.33468844596322 29.37726111354676 0  103 0 0  102.6080539034498 8.977041503008792 0  82.68415994161488 7.233926648055628 0  82.97155797297125 2.172686709553471 0  80.97224332302014 2.120332812937725 0  76.81421607170215 25.70167716881246 0  78.71086338211454 26.33628648162265 0  80.17184358199268 21.48198074350922 0  99.49036010777404 26.65836164555964 0  96.78833994094857 35.22807476254388 0  93.34970206477495 43.52968095929204 0  75.22354632404195 35.07731572447805 0  77.22465814250803 30.41960181811667 0  75.363823006544 29.68659936466808 0  63.39126070504553 50.42368556764718 0  64.95647701875035 51.66871484092242 0  67.98961967598632 47.60684421713682 0  84.37266056176615 59.07837294415774 0  78.90257764125475 66.20712379771355 0  72.8319984622144 72.83199846221439 0  58.68986283848345 58.68986283848344 0  62.16332482548717 54.99746400190621 0  60.66541338390917 53.67222390547474 0  42.32238374199186 69.06385331268146 0  43.36738087142376 70.76913364138966 0  47.60684421713683 67.9896196759863 0  59.07837294415776 84.37266056176614 0  51.50000000000001 89.20061658979718 0  43.52968095929206 93.34970206477493 0  35.07731572447807 75.22354632404193 0  39.60417710154751 72.94182035094312 0  38.64985958102829 71.18418612561919 0  16.14880268779297 79.37390107428719 0  16.54753855662737 81.33375048352886 0  21.48198074350924 80.17184358199266 0  26.65836164555966 99.49036010777402 0  17.88576229969383 101.4351985602574 0  8.97704150300881 102.6080539034498 0  7.233926648055642 82.68415994161488 0  12.26818112375769 82.08831665903909 0  11.97256230149847 80.11028493231527 0  -11.97256230149846 80.11028493231527 0  -12.26818112375769 82.08831665903909 0  -7.233926648055615 82.68415994161488 0  -8.977041503008776 102.6080539034498 0  -17.88576229969382 101.4351985602574 0  -26.65836164555963 99.49036010777404 0  -21.48198074350921 80.17184358199268 0  -16.54753855662736 81.33375048352886 0  -16.14880268779296 79.37390107428719 0  -38.64985958102829 71.18418612561919 0  -39.6041771015475 72.94182035094313 0  -35.07731572447805 75.22354632404195 0  -43.52968095929203 93.34970206477496 0  -51.49999999999998 89.20061658979719 0  -59.07837294415772 84.37266056176618 0  -47.6068442171368 67.98961967598633 0  -43.36738087142375 70.76913364138966 0  -42.32238374199185 69.06385331268147 0  -60.66541338390916 53.67222390547476 0  -62.16332482548717 54.99746400190623 0  -58.68986283848344 58.68986283848345 0  -72.83199846221439 72.8319984622144 0  -78.90257764125472 66.20712379771356 0  -84.37266056176614 59.07837294415778 0  -67.9896196759863 47.60684421713685 0  -64.95647701875035 51.66871484092242 0  -63.39126070504553 50.42368556764718 0  -75.36382300654398 29.6865993646681 0  -77.22465814250803 30.4196018181167 0  -75.22354632404195 35.07731572447805 0  -93.34970206477495 43.52968095929205 0  -96.78833994094856 35.2280747625439 0  -99.49036010777402 26.65836164555967 0  -80.17184358199266 21.48198074350924 0  -78.71086338211454 26.33628648162265 0  -76.81421607170215 25.70167716881246 0  -80.97224332302014 2.120332812937747 0  -82.97155797297125 2.172686709553494 0  -82.68415994161488 7.23392664805563 0  -102.6080539034498 8.977041503008794 0  -103 1.261386203121774e-14 0  -115 1.408343819019456e-14 0  7.041719095097281e-15 115 0  115 0 0  83 0 0  77.9944875252304 28.3876718960305 0  63.58168877887518 53.35137160398276 0  41.50000000000001 71.8801085141084 0  14.41279874635523 81.73904350001327 0  -14.41279874635521 81.73904350001327 0  -41.49999999999998 71.88010851410843 0  -63.58168877887517 53.35137160398278 0  -77.9944875252304 28.38767189603052 0  -83 1.016456843292303e-14 0  -79.99397614713156 0.9817230628575808 0  -79.97590549569634 1.963298281832967 0  -79.94579076706796 2.944577835308686 0  -79.9036364964138 3.925413946193418 0  -79.84944903201193 4.905658904176695 0  -79.78323653429521 5.8851650879734 0  -79.70500897462225 6.863784987555194 0  -79.61477813377576 7.841371226364847 0  -79.51255760018849 8.817776583510641 0  -79.3983627678968 9.792854015937287 0  -79.27221083422241 10.76645668057008 0  -79.13412079718248 11.73843795642896 0  -78.98411345262866 12.70865146670893 0  -78.8222113911153 13.67695110082411 0  -78.6484389944973 14.64319103641129 0  -78.46282243225843 15.60722576129027 0  -78.26538965757021 16.56891009537749 0  -78.05617040308229 17.52809921254958 0  -77.83519617644481 18.48464866245369 0  -77.60250025556351 19.43841439226111 0  -77.35811768358816 20.38925276836119 0  -77.10208526363517 21.33702059799189 0  -76.83444155324526 22.28157515080427 0  -76.5552268585767 23.222774180357 0  -76.26448322833551 24.16047594553826 0  -75.96225444744293 25.09453923191133 0  -75.64858603044171 26.02482337298104 0  -75.32352521464165 26.95118827137764 0  -74.98712095300598 27.8734944199548 0  -74.6394239067791 28.79160292279908 0  -74.28048643785723 29.70537551614703 0  -73.52910813520462 31.51936320488383 0  -73.13678045628245 32.41930512039917 0  -72.7334386472418 33.31436480781095 0  -72.31914344987545 34.20440747442258 0  -71.89395725551631 35.08929908308222 0  -71.45794409564122 35.96890637236853 0  -71.01116963222832 36.8430968766592 0  -70.55370114786841 37.71173894607981 0  -70.08560753563253 38.57470176632982 0  -69.6069592886969 39.43185537838274 0  -69.11782848972693 40.28307069805742 0  -68.61828880002176 41.12821953545776 0  -68.1084154484212 41.96717461427752 0  -67.58828521997656 42.79980959096779 0  -67.05797644438704 43.62599907376372 0  -66.51756898420359 44.44561864156821 0  -65.96714422280199 45.25854486268909 0  -65.40678505212668 46.06465531342765 0  -64.83657586020756 46.86382859651513 0  -64.25660251845157 47.6559443593947 0  -63.66695236871067 48.44088331234606 0  -63.06771421012849 49.21852724645017 0  -62.45897828576752 49.98875905139095 0  -61.84083626901892 50.75146273309169 0  -61.21338124979669 51.50652343118335 0  -60.57670772051873 52.25382743630217 0  -59.93091156187673 52.99326220721377 0  -59.2760900283967 53.7247163877615 0  -58.612341733793 54.44807982363627 0  -57.93976663611731 55.1632435789654 0  -57.25846602270545 55.87009995271787 0  -55.87009995271784 57.25846602270548 0  -55.16324357896537 57.93976663611733 0  -54.44807982363626 58.61234173379301 0  -53.72471638776149 59.2760900283967 0  -52.99326220721377 59.93091156187673 0  -52.25382743630217 60.57670772051874 0  -51.50652343118332 61.21338124979671 0  -50.75146273309167 61.84083626901894 0  -49.98875905139091 62.45897828576755 0  -49.21852724645019 63.06771421012847 0  -48.44088331234605 63.66695236871067 0  -47.65594435939471 64.25660251845156 0  -46.86382859651513 64.83657586020757 0  -46.06465531342767 65.40678505212666 0  -45.25854486268909 65.96714422280201 0  -44.44561864156817 66.51756898420362 0  -43.62599907376374 67.05797644438702 0  -42.79980959096778 67.58828521997657 0  -41.96717461427755 68.10841544842118 0  -41.12821953545775 68.61828880002176 0  -40.28307069805745 69.11782848972
[...]
<PointData  Scalars="f_23"> 
<DataArray  type="Float64"  Name="f_23"  format="ascii">0.0000000000000000e+00  1.7402465902316653e+01  -1.5385776590640279e-01  1.6811563344936367e+01  -1.0548926827680342e-01  1.6824682841760527e+01  -1.2573423044240595e-01  1.7450773316291205e+01  3.1888701947988923e-01  2.1087404421486918e-03  1.2121739632590093e-02  0.0000000000000000e+00  -1.6689259448731859e+00  -1.5662848262777322e+00  1.9542960364058462e+01  1.9707513813153472e+01  1.9349236084289505e+01  1.9227572182148084e+01  -1.8999834526866548e+00  -2.0860351440320533e+00  -2.1743689846424550e+00  -2.0288637362870445e+00  1.8701952132460519e+01  1.8884665520146974e+01  1.8787778582748828e+01  1.8645694157334145e+01  -1.9398622342398455e+00  -2.1172587881490430e+00  -2.1200786182061773e+00  -1.9426712477928629e+00  1.8635706400822155e+01  1.8778017511224654e+01  1.8868762369696647e+01  1.8686064793097117e+01  -2.0541459506577771e+00  -2.1995428437531723e+00  -2.1171565768951979e+00  -1.9310055811745530e+00  1.9185555923270915e+01  1.9308096061253938e+01  1.9653530912104110e+01  1.9489614177529536e+01  -1.6665652578782171e+00  -1.7017926831246299e+00  1.9416998279081973e+01  1.9721961773158938e+01  -1.9417036611306164e+00  -2.1147686791615494e+00  1.8703168432787130e+01  1.8908587055658955e+01  -1.9604974770183352e+00  -2.1439982472678123e+00  1.8648495395733040e+01  1.8811905753127164e+01  -2.0460024275260551e+00  -2.2311768180081253e+00  1.9205081147489064e+01  1.9347857660828591e+01  -1.6347968651790579e+00  -1.6247036756753286e+00  -1.6215881764469664e+00  -1.5513778137043581e+00  1.9389473641337087e+01  1.9248786788875666e+01  -2.2057401611818559e+00  -2.0183544759983452e+00  1.8821993024346224e+01  1.8661195820814783e+01  -2.1466161742940222e+00  -1.9612128298848226e+00  1.8892919296406312e+01  1.8689766712487430e+01  -2.1456597787308724e+00  -1.9702625272380867e+00  1.9668520142380867e+01  1.9365603477545122e+01  3.6227977147372464e-01  3.6376463571943907e-01  3.6212566549886166e-01  3.5332943731619143e-01  3.7193219580565728e-01  1.6668666799506806e+01  1.7031236547795540e+01  1.6842727680953484e+01  1.7013448530170933e+01  1.7026634253633041e+01  1.7020651196829142e+01  1.7084044405040633e+01  1.7147313399831340e+01  1.7393351868219451e+01  2.5819233103055970e+00  2.1092772962501223e+00  2.4418079515677182e+00  2.0657969865522090e+00  2.0581758644925410e+00  2.0525016862974303e+00  1.9907369926131635e+00  1.8912631308228154e+00  1.2183385638594884e+00  1.1785251308537969e+01  1.2281101088034895e+01  1.1888343116113916e+01  1.2343301879541681e+01  1.2357366925988620e+01  1.2363744252230662e+01  1.2647958426347028e+01  1.2524901300406356e+01  1.3162900168578068e+01  7.5619027626665414e+00  7.0287322391506644e+00  7.5145940729864744e+00  6.9045819084227809e+00  6.8911889440662515e+00  6.8760147553235438e+00  6.3091375230625122e+00  6.7554402697342368e+00  6.2059189523478793e+00  6.2023598472749377e+00  6.7521777791968178e+00  6.3100432619215256e+00  6.8728790396970796e+00  6.8879966900238747e+00  6.9013283729621824e+00  7.5090916723378331e+00  7.0249666013286030e+00  7.5578674385962650e+00  1.3145246734350613e+01  1.2506815107522906e+01  1.2631059930594542e+01  1.2345891263865362e+01  1.2339427021051032e+01  1.2325334979291769e+01  1.1868908654891017e+01  1.2262890011545725e+01  1.1766988656220581e+01  1.1854863853388480e+00  1.8578779155755265e+00  1.9575006977661646e+00  2.0191616803106349e+00  2.0248232808879241e+00  2.0324405012546172e+00  2.4072865628471445e+00  2.0757110241051366e+00  2.5484416849941147e+00  1.7341871633746827e+01  1.7094611967374636e+01  1.7031394426488106e+01  1.6968411921487622e+01  1.6974212100462637e+01  1.6961013079244150e+01  1.6787454968687076e+01  1.6978203739453395e+01  1.6615394223067248e+01  1.4419291269917311e-01  1.9813131389716646e-02  1.6010154166915761e-02  3.3812601784736309e-03  0.0000000000000000e+00  0.0000000000000000e+00  0.0000000000000000e+00  4.2349776688434218e-02  3.5009507355768638e-01  1.7112803113424256e+01  1.9790509586347880e+00  1.2414173916715999e+01  6.8900071420326370e+00  6.8865371979173844e+00  1.2396500061620836e+01  1.9457750442649129e+00  1.7059951586948756e+01  0.0000000000000000e+00  5.4270063626715714e-02  1.3212528474559249e-01  2.7268425248614336e-01  5.7060811216929963e-01  1.1717386419405993e+00  1.8614331064923451e+00  2.5856623011253035e+00  3.3227241037594957e+00  4.0679830942405149e+00  4.8160158165896538e+00  5.5649179906723223e+00  6.3141770564742066e+00  7.0636907213339910e+00  7.8133859993036694e+00  8.5631999806218655e+00  9.3130670763113237e+00  1.0062885112084272e+01  1.0812342601942529e+01  1.1559772580274666e+01  1.2296856417781145e+01  1.3005826998635767e+01  1.3686634106261197e+01  1.4357288249835726e+01  1.5025689195079339e+01  1.5691272166638569e+01  1.6337267323984406e+01  1.6853169183099020e+01  1.7275533836037940e+01  1.7436076431504791e+01  1.7441521787502442e+01  1.7434945262293738e+01  1.7378313207805835e+01  1.7324022314557745e+01  1.7222817398666287e+01  1.6938905138462911e+01  1.6326079558146706e+01  1.5617491313889367e+01  1.4857360866989829e+01  1.4067038965879993e+01  1.3258101298990628e+01  1.2437520648955667e+01  1.1609446147346107e+01  1.0776507246283375e+01  9.9405099054840917e+00  9.1032639876384653e+00  8.2645028900214523e+00  7.4369879244895767e+00  6.6461097692880760e+00  5.9150850299664492e+00  5.2142459434897495e+00  4.5202855700277675e+00  3.8290033080117292e+00  3.1490190201110724e+00  2.5535818229482707e+00  2.1582354264439152e+00  1.8374636076557977e+00  1.4722023635346244e+00  9.4278833338867041e-01  3.3242864259832611e-01  3.8505393738655379e-02  -7.5375222912170733e-02  -1.3247803714790005e-01  -1.7761092890355723e-01  -1.6084655362759939e-01  -8.0752771924017225e-02  1.9151806711204475e-01  7.9494802665593312e-01  1.4988068331836724e+00  2.2573675437864513e+00  3.0502424183175938e+00  3.8666996011776211e+00  4.7003739269326426e+00  5.5466034120693362e+00  6.3979751451514835e+00  7.2321005759345036e+00  8.0089102331118891e+00  8.7343459276283930e+00  9.4423103893543896e+00  1.0146588948638049e+01  1.0846217614620294e+01  1.1514512051034261e+01  1.1998185324070615e+01  1.2331856646851406e+01  1.2648176109092324e+01  1.3054150206874935e+01  1.3675014402117176e+01  1.4430162613089689e+01  1.5167000010625594e+01  1.5849167032649889e+01  1.6433381411770007e+01  1.6700447853348727e+01  1.6789000650980359e+01  1.6819552327556515e+01  1.6806611033729041e+01  1.6763799899217712e+01  1.6668626537291996e+01  1.6387880976925878e+01  1.5768230634041663e+01  1.5046594916436597e+01  1.4267468748466632e+01  1.3445379368727222e+01  1.2602909221992585e+01  1.1781460495701783e+01  1.1019866810033660e+01  1.0285803616936990e+01  9.5560894408473178e+00  8.8280116789629375e+00  8.1137851733621886e+00  7.5153900048243303e+00  7.1236105790299682e+00  6.8152338099991159e+00  6.4839588524072029e+00  6.0101681148487653e+00  5.3168829792609342e+00  4.5854560238247384e+00  3.8519122764882034e+00  3.1245856493204736e+00  2.4010909066181547e+00  1.6667632099319096e+00  9.4176563049475470e-01  3.1250313130205304e-01  2.4625521835787242e-02  -7.0602142166784218e-02  -1.0955092727553317e-01  -1.0440128170279776e-01  -6.8585970862315257e-02  2.7325149520149292e-02  3.1591220651452318e-01  9.4622713692847393e-01  1.6710805308623584e+00  2.4049569371085453e+00  3.1281630640481133e+00  3.8555497030064987e+00  4.5891044652210091e+00  5.3205079632993435e+00  6.0137572413711418e+00  6.4875517414991224e+00  6.8188958356744092e+00  7.1274034733186831e+00  7.5194069082762169e+00  8.1181721506443214e+00  8.8328444440241665e+00  9.5613679086182692e+00  1.0291509744284358e+01  1.1025977736305650e+01  1.1787993571762344e+01  1.2609953682852955e+01  1.3452956077640748e+01  1.4275706493723941e+01  1.5055713711909188e+01  1.5778651440218750e+01  1.6398064538723723e+01  1.6679129848115046e+01  1.6774898703864856e+01  1.6814869649841182e+01  1.6838220922868732e+01  1.6803859300315420e+01  1.6715928882881222e+01  1.6449047435541178e+01  1.5864452587763383e+01  1.5183416555267797e+01  1.4447250636982963e+01  1.3692521586739026e+01  1.3071853366971499e+01  1.2666032244533792e+01  1.2349851005581787e+01  1.2016336860456569e+01  1.1532880589913644e+01  1.0864876508477119e+01  1.0165550824221764e+01  9.4615781240104209e+00  8.7539288065106238e+00  8.0288483461969555e+00  7.2525024010446311e+00  6.4189719763695559e+00  5.5682287150758443e+00  4.7226054132956543e+00  3.8895070243319139e+00  3.0736034233973744e+00  2.2812520772635905e+00  1.5231703943303589e+00  8.1973129985062998e-01  2.1670680369944353e-01  -5.5089556716885646e-02  -1.3458507264630074e-01  -1.5508952952963284e-01  -9.9637191130853342e-02  -4.5148680339874445e-02  6.9371189756551599e-02  3.6409640189139120e-01  9.7611048338154516e-01  1.5050411773145131e+00  1.8705899097353471e+00  2.1915440777518160e+00  2.5870566189656889e+00  3.1827138698463218e+00  3.8629446137855732e+00  4.5544771613254218e+00  5.2486908890955135e+00  5.9497988934070705e+00  6.6811540365121980e+00  7.4724849420929713e+00  8.3005381269554341e+00  9.1398667463012941e+00  9.9776787698485609e+00  1.0814234273417080e+01  1.1647716908915900e+01  1.2476316991292887e+01  1.3297402842360556e+01  1.4106814682100250e+01  1.4897727394002059e+01  1.5658678114416421e+01  1.6368500364980942e+01  1.6981202821565809e+01  1.7265605937898144e+01  1.7368014761578110e+01  1.7424056549867878e+01  1.7485647983800863e+01  1.7493569258765508e+01  1.7488931982369010e+01  1.7328533999417200e+01  1.6905934036174269e+01  1.6390849174519236e+01  1.5745623114035146e+01  1.5080808834456745e+01  1.4413182152019484e+01  1.3743320336114229e+01  1.3063409784351801e+01  1.2355644215196513e+01  1.1620100271474387e+01  1.0874350794009505e+01  1.0126603660296771e+01  9.3785011137765792e+00  8.6303500127535333e+00  7.8822505271000116e+00  7.1342659770553523e+00  6.3864560015020739e+00  5.6388858815321106e+00  4.8916393567310070e+00  4.1452289003555078e+00  3.4014982151856974e+00  2.6661954373407131e+00  1.9451554694486857e+00  1.2616736855225474e+00  6.7445656503596663e-01  4.0540675593851755e-01  3.2413915167560681e-01  3.0903184423816860e-01  2.1590980508511956e-03  2.3009966712178231e-03  2.5143427129865879e-03  2.7810768559909348e-03  3.0888626783854259e-03  3.4249474385675150e-03  3.7818205124966644e-03  4.1507448321988459e-03  4.5296796839231256e-03  4.9146361418166236e-03  5.3010328306297011e-03  5.6863847192185086e-03  6.0689478696935740e-03  6.4483518722716097e-03  6.8236055281414507e-03  7.1944601492956008e-03  7.5666364605293307e-03  7.9393305100174741e-03  8.3088156524154348e-03  8.6651933952435617e-03  8.9943862817194811e-03  9.2808981266288577e-03  9.5125842206743375e-03  9.6854850633924013e-03  9.8031124915931769e-03  9.8734150260617760e-03  9.9073475852694045e-03  9.9181946993574313e-03  9.9189184514651297e-03  9.9129718639637456e-03  9.9105012115782293e-03  9.9078950595087416e-03  9.9020466334377114e-03  9.8931535468176676e-03  9.8803516764147063e-03  9.8664848207869905e-03  9.8512879759676524e-03  9.8373158216871637e-03  9.8258070055691031e-03  9.8191658503035250e-03  9.8180847404234599e-03  9.8254982043715772e-03  9.8443147378342085e-03  9.8739910458411368e-03  9.9170106659005469e-03  9.9743189413036837e-03  1.0047560745676483e-02  1.0136715775937260e-02  1.0241852781321040e-02  1.0362634720748330e-02  1.0497882988550845e-02  1.0646155784040701e-02  1.0807953109882284e-02  1.0978005025284213e-02  1.1158037328299921e-02  1.1343163818414513e-02  1.1533806159657416e-02  1.1726668892518253e-02  1.1921187713505095e-02  1.2112480619236976e-02  1.2302989463651829e-02  1.2488216301359909e-02  1.2671569813850732e-02  1.2845493412618845e-02  1.3016142429725212e-02  1.3182391955533279e-02  1.3343414690651929e-02  1.3492390244898712e-02  1.3620252513429966e-02  1.3721783904911914e-02  1.3788494403590578e-02  1.3818596931688631e-02  1.3813984629729156e-02  1.3779431749013219e-02  1.3722042427925237e-02  1.3651813036442636e-02  1.3572214736474540e-02  1.3489322531674040e-02  1.3403050472158945e-02  1.3309489740118459e-02  1.3211578287854941e-02  1.3108943957581165e-02  1.3004465320704907e-02  1.2895590915122917e-02  1.2789144231327881e-02  1.2683517988496417e-02  1.2581608088372123e-02  1.2486513208530187e-02  1.2397177200081426e-02  1.2318783172998563e-02  1.2251612929979283e-02  1.2197040539488273e-02  1.2155421167746082e-02  1.2130233282702232e-02  1.2127948811228952e-02  1.2150776326989608e-02  1.2189252868887262e-02  1.2241561564251735e-02  1.2307384075384866e-02  1.2383547889963122e-02  1.2469407198608413e-02  1.2562340088421777e-02  1.2661997693552947e-02  1.2764632285937858e-02  1.2869899554185462e-02  1.2973885100377365e-02  1.3076776011630332e-02  1.3176974871256068e-02  1.3273420302378689e-02  1.3362810125833374e-02  1.3447025773834012e-02  1.3527309784629092e-02  1.3602448322153139e-02  1.3670745881943948e-02  1.3725633912671798e-02  1.3756065881992541e-02  1.3758689912179602e-02  1.3725904703316708e-02  1.3656233787122539e-02  1.3553690495234838e-02  1.3423040810804735e-02  1.3272072313349250e-02  1.3110108575822369e-02  1.2941003236683426e-02  1.2769599106393503e-02  1.2592101150289818e-02  1.2408427876765219e-02  1.2219951058896495e-02  1.2027281578063950e-02  1.1831784311800733e-02  1.1636122074252287e-02  1.1439855881518433e-02  1.1247034800350823e-02  1.1057486894149175e-02  1.0875941412783401e-02  1.0700955046825276e-02  1.0537346483383897e-02  1.0385145693473282e-02  1.0245983606043797e-02  1.0122567053816084e-02  1.0013763657678192e-02  9.9205237257827920e-03  9.8441148122661182e-03  9.7825501046815040e-03  9.7350969020564438e-03  9.7020281860162802e-03  9.6798890599156077e-03  9.6676034761605453e-03  9.6633883332896409e-03  9.6669099964152936e-03  9.6720700238031969e-03  9.6808357885614336e-03  9.6902331545169924e-03  9.6984482298103358e-03  9.7055157847997595e-03  9.7062593568821749e-03  9.7054609033185388e-03  9.7000265043609337e-03  9.6938041415146562e-03  9.6876711074495650e-03  9.6782003533411303e-03  9.6565920007732724e-03  9.6114773581724936e-03  9.5294880658376799e-03  9.4004201188219606e-03  9.2169340922238774e-03  8.9766661799114481e-03  8.6831304498971185e-03  8.3475893466474233e-03  7.9823579968208765e-03  7.6047056898669637e-03  7.2212578822465250e-03  6.8379830626838552e-03  6.4492586530193402e-03  6.0563170828414050e-03  5.6530973285817947e-03  5.2442859167264851e-03  4.8274889808772609e-03  4.4040966991474402e-03  3.9736714339501291e-03  3.5419664821638068e-03  3.1052234015706412e-03  2.6637384206995335e-03  2.2225637285732402e-03  1.7793668719964068e-03  1.3341744093214218e-03  8.9042191395930751e-04  4.4522010120807910e-04  0.0000000000000000e+00  0.0000000000000000e+00  0.0000000000000000e+00  0.0000000000000000e+00  0.0000000000000000e+00  0.0000000000000000e+00  0.0000000000000000e+00  0.0000000000000000e+00  0.0000000000000000e+00  0.0000000000000000e+00  0.0000000000000000e+00  0.0000000000000000e+00  0.0000000000000000e+00  0.0000000000000000e+00  0.0000000000000000e+00  0.0000000000000000e+00  0.0000000000000000e+00  0.0000000000000000e+00  0.0000000000000000e+00  0.0000000000000000e+00  0.0000000000000000e+00  0.0000000000000000e+00  0.0000000000000000e+00  0.0000000000000000e+00  0.0000000000000000e+00  0.0000000000000000e+00  0.0000000000000000e+00  0.0000000000000000e+00  0.0000000000000000e+00  0.0000000000000000e+00  0.0000000000000000e+00  0.0000000000000000e+00  0.0000000000000000e+00  0.0000000000000000e+00  0.0000000000000000e+00  0.0000000000000000e+00  0.0000000000000000e+00  0.0000000000000000e+00  0.0000000000000000e+00  0.0000000000000000e+00  0.0000000000000000e+00  0.0000000000000000e+00  0.0000000000000000e+00  0.0000000000000000e+00  0.0000000000000000e+00  0.0000000000000000e+00  0.0000000000000000e+00  0.0000000000000000e+00  0.0000000000000000e+00  0.0000000000000000e+00  0.0000000000000000e+00  0.0000000000000000e+00  0.0000000000000000e+00  0.0000000000000000e+00  0.0000000000000000e+00  0.0000000000000000e+00  0.0000000000000000e+00  0.0000000000000000e+00  0.0000000000000000e+00  0.0000000000000000e+00  0.0000000000000000e+00  0.0000000000000000e+00  0.0000000000000000e+00  0.0000000000000000e+00  0.0000000000000000e+00  0.0000000000000000e+00  0.0000000000000000e+00  0.0000000000000000e+00  0.0000000000000000e+00  0.0000000000000000e+00  0.0000000000000000e+00  0.0000000000000000e+00  0.0000000000000000e+00  0.0000000000000000e+00  0.0000000000000000e+00  0.0000000000000000e+00  0.0000000000000000e+00  0.0000000000000000e+00  0.0000000000000000e+00  0.0000000000000000e+00  0.0000000000000000e+00  0.0000000000000000e+00  0.0000000000000000e+00  0.0000000000000000e+00  0.0000000000000000e+00  0.0000000000000000e+00  0.0000000000000000e+00  0.0000000000000000e+00  0.0000000000000000e+00  0.0000000000000000e+00  0.0000000000000000e+00  0.0000000000000000e+00  0.0000000000000000e+00  0.0000000000000000e+00  0.0000000000000000e+00  0.0000000000000000e+00  0.0000000000000000e+00  0.0000000000000000e+00  0.0000000000000000e+00  0.0000000000000000e+00  0.0000000000000000e+00  0.0000000000000000e+00  0.0000000000000000e+00  0.0000000000000000e+00  0.0000000000000000e+00  0.0000000000000000e+00  0.0000000000000000e+00  0.0000000000000000e+00  0.0000000000000000e+00  0.0000000000000000e+00  0.0000000000000000e+00  0.0000000000000000e+00  0.0000000000000000e+00  0.0000000000000000e+00  0.0000000000000000e+00  1.0964325166091520e-03  1.5987998203409954e-03  1.8898090260540041e-03  2.0537664300144375e-03  -1.7358074490002506e+00  -1.7746365872203018e+00  -1.7838481574604177e+00  -1.7440579862223082e+00  -8.9606443863056284e-01  -1.2791612837758823e-01  6.8776036009242814e-01  1.5316005644476862e+00  2.3947662295222965e+00  3.2693290326680797e+00  4.1505997308618729e+00  5.0356740948500427e+00  5.9229277284145230e+00  6.8113700844909628e+00  7.7006402926868001e+00  8.5903502830710714e+00  9.4801798526146950e+00  1.0369785251628661e+01  1.1259131032189167e+01  1.2148057396018514e+01  1.3035771400299407e+01  1.3922056751571890e+01  1.4805388198575029e+01  1.5684371553481107e+01  1.6555138479958195e+01  1.7409322750841181e+01  1.8228786119788072e+01  1.8965980080418291e+01  1.9743363115975033e+01  1.9797887198592818e+01  1.9801824572454350e+01  1.9772127639786103e+01  1.8636849296779520e+01  1.7660673765818085e+01  1.6722056690632733e+01  1.5803785006347230e+01  1.4895514331210309e+01  1.3991843396744022e+01  1.3090069383434322e+01  1.2188905302435627e+01  1.1287818640612908e+01  1.0386635123345682e+01  9.4853072454540346e+00  8.5839286182387866e+00  7.6825653661628435e+00  6.7812929689701908e+00  5.8800095745590424e+00  4.9784033308235589e+00  4.0757033351198926e+00  3.1702766564178506e+00  2.2588683059879893e+00  1.3356595916779583e+00  3.9032213833213614e-01  -5.9332919697504960e-01  1.9415157186764542e+01  1.9449456344814052e+01  1.9453517474046897e+01  1.9409081555311790e+01  1.8538864231993603e+01  1.7756170371890708e+01  1.6929551377529556e+01  1.6079225125838615e+01  1.5214183792992682e+01  1.4340512406380293e+01  1.3461586811550346e+01  1.2579371176792113e+01  1.1695057892391878e+01  1.0809489179334172e+01  9.9231118206990008e+00  9.0363356732248974e+00  8.1492731272230419e+00  7.2622337635386129e+00  6.3755791297418405e+00  5.4896485034654718e+00  4.6048523500702245e+00  3.7218298082684464e+00  2.8423626387379093e+00  1.9682717923782962e+00  1.1044300778611256e+00  2.6310405923079583e-01  -5.2283467388875204e-01  -1.2299225193448089e+00  -2.1133554946701918e+00  -2.1734028176331202e+00  -2.1789495985437468e+00  -2.1496131302883081e+00  -1.0044198201093157e+00  -2.0572236737577070e-02  9.2225197104278711e-01  1.8417233869432994e+00  2.7492108984595802e+00  3.6509987821986321e+00  4.5503546285292265e+00  5.4488805244160092e+00  6.3473025357214983e+00  7.2458998107269945e+00  8.1447681665102873e+00  9.0439167145199661e+00  9.9433853473665916e+00  1.0843272848880853e+01  1.1743864358071860e+01  1.2