<?xml version="1.0"?>
<VTKFile type="UnstructuredGrid"  version="0.1"  >
<UnstructuredGrid>
<Piece  NumberOfPoints="690" NumberOfCells="1302">
<Points>
<DataArray  type="Float64"  NumberOfComponents="3"  format="ascii">3.325878449210181 2.222280932078409 0  2.222280932078409 3.32587844921018 0  1.944495815568608 2.910143643058908 0  2.910143643058908 1.944495815568608 0  -2.222280932078409 3.325878449210181 0  -3.32587844921018 2.222280932078409 0  -2.910143643058908 1.944495815568608 0  -1.944495815568607 2.910143643058908 0  -3.325878449210181 -2.222280932078408 0  -2.22228093207841 -3.32587844921018 0  -1.944495815568609 -2.910143643058908 0  -2.910143643058909 -1.944495815568607 0  2.222280932078408 -3.325878449210181 0  3.32587844921018 -2.22228093207841 0  2.910143643058908 -1.944495815568609 0  1.944495815568607 -2.910143643058909 0  6 0 0  3.673940397442059e-16 6 0  -1.102182119232618e-15 -6 0  -6 7.347880794884119e-16 0  3.092041813450948 2.537573136654581 0  2.828427124746191 2.82842712474619 0  2.537573136654581 3.092041813450948 0  2.307710352850239 2.631439326176422 0  2.631439326176421 2.307710352850241 0  -2.537573136654579 3.09204181345095 0  -2.82842712474619 2.828427124746191 0  -3.092041813450948 2.537573136654581 0  -2.631439326176421 2.307710352850241 0  -2.307710352850241 2.631439326176421 0  -3.092041813450948 -2.537573136654582 0  -2.82842712474619 -2.82842712474619 0  -2.537573136654582 -3.092041813450948 0  -2.307710352850241 -2.631439326176421 0  -2.63143932617642 -2.307710352850241 0  2.537573136654581 -3.092041813450948 0  2.82842712474619 -2.82842712474619 0  3.092041813450948 -2.537573136654582 0  2.63143932617642 -2.307710352850241 0  2.307710352850241 -2.631439326176421 0  5.97950695804002 0.495476072833992 0  5.918167820416334 0.9875675416844029 0  5.816401595635983 1.472912922844793 0  5.674903450203809 1.9481968152281 0  5.494639959930346 2.410172547917815 0  5.276842507238935 2.855684358222441 0  5.022998869575172 3.28168894873456 0  4.734843056378362 3.685276276138007 0  4.41434346403879 4.063689429754445 0  4.063689429754446 4.414343464038789 0  3.685276276138008 4.734843056378361 0  3.281688948734562 5.022998869575171 0  2.85568435822244 5.276842507238936 0  2.410172547917819 5.494639959930343 0  1.948196815228102 5.674903450203808 0  1.472912922844795 5.816401595635982 0  0.9875675416844021 5.918167820416334 0  0.4954760728339964 5.97950695804002 0  0.4954760728339937 -5.97950695804002 0  0.9875675416844032 -5.918167820416334 0  1.472912922844796 -5.816401595635982 0  1.948196815228102 -5.674903450203808 0  2.410172547917818 -5.494639959930344 0  2.855684358222444 -5.276842507238933 0  3.281688948734562 -5.022998869575171 0  3.685276276138009 -4.73484305637836 0  4.063689429754447 -4.414343464038788 0  4.414343464038792 -4.063689429754445 0  4.734843056378364 -3.685276276138004 0  5.022998869575173 -3.281688948734559 0  5.276842507238936 -2.855684358222438 0  5.494639959930346 -2.410172547917814 0  5.67490345020381 -1.948196815228097 0  5.816401595635984 -1.472912922844789 0  5.918167820416335 -0.9875675416843989 0  5.97950695804002 -0.4954760728339934 0  -0.4954760728339943 5.97950695804002 0  -0.9875675416843996 5.918167820416334 0  -1.472912922844793 5.816401595635983 0  -1.9481968152281 5.674903450203809 0  -2.410172547917817 5.494639959930344 0  -2.855684358222438 5.276842507238936 0  -3.281688948734559 5.022998869575172 0  -3.685276276138006 4.734843056378362 0  -4.063689429754446 4.414343464038789 0  -4.414343464038788 4.063689429754449 0  -4.734843056378361 3.685276276138008 0  -5.022998869575171 3.281688948734562 0  -5.276842507238936 2.85568435822244 0  -5.494639959930343 2.41017254791782 0  -5.674903450203808 1.948196815228102 0  -5.816401595635982 1.472912922844795 0  -5.918167820416334 0.9875675416844023 0  -5.97950695804002 0.4954760728339969 0  -5.97950695804002 -0.4954760728339947 0  -5.918167820416334 -0.9875675416844049 0  -5.816401595635982 -1.472912922844797 0  -5.674903450203807 -1.948196815228103 0  -5.494639959930343 -2.410172547917818 0  -5.276842507238933 -2.855684358222443 0  -5.02299886957517 -3.281688948734564 0  -4.734843056378359 -3.685276276138009 0  -4.414343464038788 -4.063689429754449 0  -4.063689429754445 -4.414343464038792 0  -3.685276276138004 -4.734843056378363 0  -3.281688948734559 -5.022998869575173 0  -2.855684358222438 -5.276842507238936 0  -2.410172547917813 -5.494639959930346 0  -1.948196815228096 -5.67490345020381 0  -1.47291292284479 -5.816401595635984 0  -0.9875675416843959 -5.918167820416335 0  -0.495476072833993 -5.97950695804002 0  2.240848146171211 3.008948709507838 0  3.008948709507839 2.24084814617121 0  -2.24084814617121 3.00894870950784 0  -3.008948709507838 2.240848146171211 0  -2.240848146171211 -3.008948709507838 0  -3.008948709507839 -2.240848146171211 0  3.008948709507839 -2.240848146171211 0  2.24084814617121 -3.008948709507839 0  -2.464543356956426 1.881254992561457 0  2.464542250435746 -1.881263393902289 0  1.881289449356904 2.464538818733608 0  -1.881213905288764 -2.464401123525205 0  -0.257471824488511 -5.573752762686117 0  5.57375276268612 -0.2574718244885086 0  0.2574718244885114 5.57375276268612 0  -5.573752762686126 0.2574718244885129 0  1.508458067514407 2.719993701077515 0  1.461765778439367 2.281037610439501 0  2.719994273027871 -1.508453724938635 0  2.281037610439499 -1.461765778439364 0  -1.508445476836382 -2.719970751876116 0  -1.461765778439365 -2.281037610439501 0  -2.719994457447985 1.508452324715164 0  -2.2810376104395 1.461765778439364 0  -1.756918105971569 3.319056257095291 0  3.319056257095291 1.756918105971569 0  1.756918105971569 -3.319056257095292 0  -3.319056257095291 -1.756918105971567 0  -1.479878017433113 2.980626028124223 0  2.980626028124224 1.479878017433113 0  1.479878017433113 -2.980626028124223 0  -2.980626028124223 -1.479878017433111 0  3.383197954213211 1.324062701213575 0  1.324062701213574 -3.38319795421321 0  -1.324062701213574 3.383197954213209 0  -3.38319795421321 -1.324062701213571 0  -1.046223752830093 3.033714743745938 0  3.033722346279203 1.046201624639621 0  1.046294637968222 -3.033690389221342 0  -3.033624935952679 -1.046336593551671 0  0.8795431115831561 -3.455329568825733 0  3.455380768752159 0.8794690457471004 0  -0.8794866643659577 3.455368587534361 0  -3.455264289682411 -0.8796194948965502 0  5.344612645740302 -1.650574128192076 0  -1.650574128192076 -5.344612645740301 0  1.650574128192078 5.344612645740298 0  -5.344612645740298 1.650574128192081 0  1.096447341802431 2.557240722504696 0  1.045238228758374 2.104626352729164 0  1.156148712803134 3.003722848069612 0  2.557240817829755 -1.096446618039799 0  2.105530730917323 -1.038563818255723 0  3.003722888598975 -1.156148405080926 0  -1.096479878316655 -2.557153345423992 0  -1.038579426614925 -2.105529266181584 0  -1.156134883925814 -3.0036780713133 0  -2.557157296352636 1.096481019629784 0  -2.115557827701936 1.034428149391658 0  -3.003677716106004 1.156139640430563 0  1.827278380840577 -1.401391736268975 0  1.652290245509143 -0.9790014624739353 0  1.373808896531596 -1.341385070113424 0  1.198959485837582 -0.9192296004898357 0  1.477364231761668 -0.5565351229424695 0  1.024082827413604 -0.4969183047921986 0  1.302398102498483 -0.1342726045766635 0  0.8491205866659407 -0.07458463833765777 0  0.570784712264505 -0.4373019456306296 0  0.3957862209856982 -0.01487853925147567 0  0.1189292370561953 -0.3770518184537516 0  -0.04737281111483056 0.04909553553580585 0  -0.295025167887853 -0.3137243979840734 0  -1.401723483464745 -1.827091957872919 0  -1.849021580445801 1.404387540058853 0  1.401989033138633 1.827178210475967 0  0.316999963917325 -0.7773354314260792 0  3.813158706837979 1.168742784104726 0  1.168742784104722 -3.813158706837979 0  -1.168742784104726 3.813158706837978 0  -3.813158706837979 -1.168742784104721 0  0.7125687147741611 -3.884488983901569 0  3.884495079130907 0.7125598974127293 0  -0.7125619948673555 3.88449362898593 0  -3.884705834560464 -0.7123783923709278 0  0.2225078210480082 0.408381635678666 0  0.6826012874657325 2.320787242490352 0  2.38205114125786 -0.6926549087750308 0  -0.6755539957486749 -2.383899089724103 0  -2.385548781737548 0.6748368392276864 0  -0.2211449063814161 0.4684146421342243 0  -1.936578276355262 0.6138423559646118 0  -2.421785846146684 5.053837493390614 0  5.053837493390617 2.421785846146683 0  2.421785846146685 -5.053837493390616 0  -5.053837493390618 -2.421785846146684 0  2.590724763969583 3.479047610418479 0  2.268600445916931 3.737149394227315 0  -2.590687542378346 3.479024504097338 0  3.479047610418478 -2.590724763969584 0  3.737149394227315 -2.268600445916934 0  3.479024504097338 2.590687542378349 0  -3.479047610418478 2.590724763969583 0  -3.737149394227315 2.268600445916932 0  -2.590724763969584 -3.479047610418479 0  -2.268600445916933 -3.737149394227317 0  2.590687542378349 -3.479024504097338 0  -3.479024504097338 -2.590687542378349 0  0.04001019121698014 0.827259552388188 0  -0.425614703164204 3.522022734504161 0  -0.2514533800276133 3.952366129742403 0  3.522000709936073 0.4256638588742054 0  3.952362700671883 0.251461223070174 0  0.4219058359674309 -3.520958312092688 0  0.2508363554792805 -3.952187951826428 0  -3.520880503759853 -0.424570988417546 0  -3.952201458418147 -0.2512610528087227 0  -2.210379968513758 0.2528861747965302 0  0.5431935040978412 -4.32002928298305 0  4.320059423662184 0.5432961791360882 0  -0.5432952215380995 4.320059753483109 0  -4.320067675858157 -0.5432325665855441 0  1.127432792669877 0.2880864436019788 0  1.574217525692459 0.2333178611640472 0  -1.767145127772846 0.1892589911621698 0  -0.4071676185833575 0.8857068798212764 0  -2.034188781236058 -0.168747330705204 0  -3.969873795361075 3.970375149130908 0  3.970375149130908 3.969873795361078 0  -3.970375149130909 -3.969873795361079 0  3.969873795361075 -3.97037514913091 0  -1.200442532514168 2.625779981819305 0  -2.625935982367414 -1.200258700666845 0  2.625777374991005 1.20044227236721
[...]
<CellData  Vectors="f_60"> 
<DataArray  type="Float64"  Name="f_60"  NumberOfComponents="3" format="ascii">7.8090839554832703e-01  7.8091082897259212e-01 0.0000000000000000e+00  7.8103731279746058e-01  7.8095959852731955e-01 0.0000000000000000e+00  7.8095869979913768e-01  7.8104380303131482e-01 0.0000000000000000e+00  7.8104788021433613e-01  7.8104309403174166e-01 0.0000000000000000e+00  7.8105629463976145e-01  7.8104671220394051e-01 0.0000000000000000e+00  7.8107227231989107e-01  7.8102965094171573e-01 0.0000000000000000e+00  7.8103649997609037e-01  7.8108262905972092e-01 0.0000000000000000e+00  7.8106649806188777e-01  7.8107731597797758e-01 0.0000000000000000e+00  7.8106866406276798e-01  7.8105002345092733e-01 0.0000000000000000e+00  7.8104904877133297e-01  7.8102314755711322e-01 0.0000000000000000e+00  7.8102692388081119e-01  7.8104843287922310e-01 0.0000000000000000e+00  7.8091098140435644e-01  -7.8090856968719258e-01 0.0000000000000000e+00  7.8104387232847639e-01  -7.8095884248807979e-01 0.0000000000000000e+00  7.8095973978591315e-01  -7.8103745740121022e-01 0.0000000000000000e+00  7.8104680309613139e-01  -7.8105635321880940e-01 0.0000000000000000e+00  7.8104341375709940e-01  -7.8104783086490193e-01 0.0000000000000000e+00  7.8102984833542644e-01  -7.8107244493776251e-01 0.0000000000000000e+00  7.8108267009463195e-01  -7.8103658603271209e-01 0.0000000000000000e+00  7.8107736438813880e-01  -7.8106654247725504e-01 0.0000000000000000e+00  7.8105040623375699e-01  -7.8106880384562616e-01 0.0000000000000000e+00  7.8104852138289249e-01  -7.8102702323030204e-01 0.0000000000000000e+00  7.8102328577025204e-01  -7.8104901005572636e-01 0.0000000000000000e+00  -7.8090840727621602e-01  -7.8091084306746206e-01 0.0000000000000000e+00  -7.8103734330810282e-01  -7.8095961972772832e-01 0.0000000000000000e+00  -7.8095871095385627e-01  -7.8104381561106895e-01 0.0000000000000000e+00  -7.8104787599689196e-01  -7.8104316454208511e-01 0.0000000000000000e+00  -7.8105623335407814e-01  -7.8104682267255210e-01 0.0000000000000000e+00  -7.8107231463920035e-01  -7.8102969580450921e-01 0.0000000000000000e+00  -7.8103649662814567e-01  -7.8108263440194914e-01 0.0000000000000000e+00  -7.8106869949802338e-01  -7.8105010718164081e-01 0.0000000000000000e+00  -7.8106640691142781e-01  -7.8107733687126246e-01 0.0000000000000000e+00  -7.8104904678333331e-01  -7.8102318001235127e-01 0.0000000000000000e+00  -7.8102694856149690e-01  -7.8104853831152621e-01 0.0000000000000000e+00  -7.8091081207541557e-01  7.8090837986467376e-01 0.0000000000000000e+00  -7.8095959645983448e-01  7.8103733631455463e-01 0.0000000000000000e+00  -7.8104379552136505e-01  7.8095868766668353e-01 0.0000000000000000e+00  -7.8104314803141961e-01  7.8104788343963227e-01 0.0000000000000000e+00  -7.8104689998953358e-01  7.8105613970518939e-01 0.0000000000000000e+00  -7.8102968407621232e-01  7.8107231340446626e-01 0.0000000000000000e+00  -7.8108260778430472e-01  7.8103646026018880e-01 0.0000000000000000e+00  -7.8105008820583943e-01  7.8106869954692371e-01 0.0000000000000000e+00  -7.8107732562838150e-01  7.8106628373632281e-01 0.0000000000000000e+00  -7.8102317059762871e-01  7.8104905381036038e-01 0.0000000000000000e+00  -7.8104861064929310e-01  7.8102693990442518e-01 0.0000000000000000e+00  1.5093860284824911e-02  -7.2331947259035995e-02 0.0000000000000000e+00  -7.2330830532337131e-02  -1.5094102437961257e-02 0.0000000000000000e+00  -1.5095897948625595e-02  7.2330834402236643e-02 0.0000000000000000e+00  7.2345226089575720e-02  1.5078146705834145e-02 0.0000000000000000e+00  -8.9559616473132500e-02  4.8442231838739672e-03 0.0000000000000000e+00  3.9531791296750302e-02  1.1402892670848222e-01 0.0000000000000000e+00  1.5515300682927106e-02  7.2906168407598698e-02 0.0000000000000000e+00  7.2921711654497914e-02  -1.5500065253671709e-02 0.0000000000000000e+00  -1.5499551930172273e-02  -7.2921541455665068e-02 0.0000000000000000e+00  -7.2923847613477491e-02  1.5498243428443954e-02 0.0000000000000000e+00  3.4685779408200813e-02  1.0732610567605848e-01 0.0000000000000000e+00  -1.8378347248904803e-02  -1.3265485695028342e-01 0.0000000000000000e+00  1.3265737046183365e-01  -1.8387026867811282e-02 0.0000000000000000e+00  1.8388984612731876e-02  1.3265939143553543e-01 0.0000000000000000e+00  -1.3265526394031751e-01  1.8399523852015501e-02 0.0000000000000000e+00  -3.6256365152910544e-02  -9.4713691189182547e-02 0.0000000000000000e+00  9.4722529796339994e-02  -3.6273147099979294e-02 0.0000000000000000e+00  3.6254389259021330e-02  9.4713996213784901e-02 0.0000000000000000e+00  -9.4711572501770314e-02  3.6255759843077620e-02 0.0000000000000000e+00  -3.7414850328616224e-02  9.4330749583372731e-02 0.0000000000000000e+00  9.4343675005305383e-02  3.7432725728581202e-02 0.0000000000000000e+00  3.7432906677936473e-02  -9.4343226067835947e-02 0.0000000000000000e+00  -9.4345245103081510e-02  -3.7435133715895734e-02 0.0000000000000000e+00  -4.9247749206977109e-02  -4.1710715903063508e-02 0.0000000000000000e+00  4.9246174895504369e-02  4.1709382529261999e-02 0.0000000000000000e+00  4.1724005487533695e-02  -4.9263440189710704e-02 0.0000000000000000e+00  -4.1709927145327105e-02  4.9246817922477870e-02 0.0000000000000000e+00  3.4464335578243958e-02  -4.0331911417740562e-02 0.0000000000000000e+00  1.0220487514444582e-01  1.0261858681384985e-02 0.0000000000000000e+00  6.9983335526907595e-02  -9.8017760026213499e-02 0.0000000000000000e+00  9.8003361609741435e-02  6.9973055255141220e-02 0.0000000000000000e+00  -9.8003798207389595e-02  -6.9973366979870222e-02 0.0000000000000000e+00  -6.9971854516480747e-02  9.8001679870609523e-02 0.0000000000000000e+00  4.4741176289280239e-02  5.2825807023796349e-02 0.0000000000000000e+00  -5.2808475757843990e-02  4.4726497455790180e-02 0.0000000000000000e+00  5.2825839990217983e-02  -4.4741204210414907e-02 0.0000000000000000e+00  -4.4743118061447165e-02  -5.2828099669861676e-02 0.0000000000000000e+00  -1.8135552147473616e-02  -1.5463233896735290e-01 0.0000000000000000e+00  -9.8966567463582608e-02  7.0660771016374857e-02 0.0000000000000000e+00  7.0673639507584443e-02  9.8984590906932152e-02 0.0000000000000000e+00  9.8984245582766542e-02  -7.0673392950869371e-02 0.0000000000000000e+00  -7.0675261824443308e-02  -9.8986863103068076e-02 0.0000000000000000e+00  1.0627445765875382e-01  3.4693142106791558e-03 0.0000000000000000e+00  -1.6250370535906294e-01  7.5324929259195511e-04 0.0000000000000000e+00  2.4065737400107146e-04  -1.1767889141007261e-01 0.0000000000000000e+00  -1.1769088594337875e-01  -2.5113744340950206e-04 0.0000000000000000e+00  1.1769514267044265e-01  2.4698361429319199e-04 0.0000000000000000e+00  -2.4978629936948937e-04  1.1767728676182486e-01 0.0000000000000000e+00  3.7229624052927476e-04  -1.5927570483295139e-01 0.0000000000000000e+00  -1.0074645915922914e-01  -5.5141272107005208e-05 0.0000000000000000e+00  -3.6712149524637194e-02  -1.4386099869380406e-01 0.0000000000000000e+00  1.4386031037990099e-01  -3.6715590798703415e-02 0.0000000000000000e+00  3.6716601935664957e-02  1.4386175113828695e-01 0.0000000000000000e+00  -1.4385260650632736e-01  3.6718930238033042e-02 0.0000000000000000e+00  8.8408954161692935e-02  -3.9543931087805066e-02 0.0000000000000000e+00  9.0572780418633606e-02  1.1993971873245199e-01 0.0000000000000000e+00  1.3864802101403995e-01  -8.8122602582412835e-02 0.0000000000000000e+00  -1.4053556679349480e-01  -9.1528720047919981e-02 0.0000000000000000e+00  9.1523443178386274e-02  -1.4055483070578317e-01 0.0000000000000000e+00  -9.1522354674192591e-02  1.4053417005966851e-01 0.0000000000000000e+00  1.4053445069629453e-01  9.1533517487130983e-02 0.0000000000000000e+00  -6.1900352628882840e-02  -5.2346717821622236e-02 0.0000000000000000e+00  -5.4312891435133875e-02  6.3201361269829628e-02 0.0000000000000000e+00  2.2793487942665797e-02  -7.0062295236887936e-02 0.0000000000000000e+00  5.2968885993906659e-02  5.4912974187456526e-02 0.0000000000000000e+00  5.4929590309747603e-02  -5.2951417329711079e-02 0.0000000000000000e+00  -5.2950712030030538e-02  -5.4929512338793327e-02 0.0000000000000000e+00  -5.4931907583560320e-02  5.2949218090085355e-02 0.0000000000000000e+00  -5.3487694173236351e-02  -5.5444308168559657e-02 0.0000000000000000e+00  5.5444559594614265e-02  -5.3488580403464783e-02 0.0000000000000000e+00  5.3503446064882138e-02  5.5425448016949007e-02 0.0000000000000000e+00  -5.5447509817186685e-02  5.3487041390985209e-02 0.0000000000000000e+00  -2.3049948040448798e-02  -1.6043500018244572e-01 0.0000000000000000e+00  1.6043122680511010e-01  -2.3057492051226650e-02 0.0000000000000000e+00  -1.6042770254417568e-01  2.3069829492044586e-02 0.0000000000000000e+00  2.3059266094778319e-02  1.6043215763522278e-01 0.0000000000000000e+00  1.5950985354209763e-02  1.6481449634224590e-01 0.0000000000000000e+00  1.6483503987606357e-01  -1.5932193828175595e-02 0.0000000000000000e+00  -1.5931667519522550e-02  -1.6483443050311003e-01 0.0000000000000000e+00  -1.6483829698557662e-01  1.5929678025650332e-02 0.0000000000000000e+00  -1.6381989658844048e-01  -2.1992946600423641e-02 0.0000000000000000e+00  1.6383782522958146e-01  2.1973426485240991e-02 0.0000000000000000e+00  2.1993057096071814e-02  -1.6382124764764389e-01 0.0000000000000000e+00  -2.1996009122994015e-02  1.6381970268390275e-01 0.0000000000000000e+00  6.9220951668808747e-02  5.7255873512579429e-02 0.0000000000000000e+00  1.3117657757545342e-01  -5.7551477414282341e-02 0.0000000000000000e+00  -5.7588440313085666e-02  -1.3113960572214370e-01 0.0000000000000000e+00  -1.3114703038507486e-01  5.7553147053082211e-02 0.0000000000000000e+00  5.7578926862299352e-02  1.3111782651951456e-01 0.0000000000000000e+00  1.5398822011397899e-02  -5.5421897566267871e-02 0.0000000000000000e+00  1.3706263202344185e-01  -9.0593027441912888e-02 0.0000000000000000e+00  1.3585520383440328e-01  -1.2915694368905362e-01 0.0000000000000000e+00  -1.2934636385864973e-01  -1.3538463808201973e-01 0.0000000000000000e+00  1.2911706918000104e-01  1.3580312788062027e-01 0.0000000000000000e+00  -1.3584141306101033e-01  1.2907226965470947e-01 0.0000000000000000e+00  2.0612976964011040e-01  -1.4513710275530642e-01 0.0000000000000000e+00  -1.4518688663321788e-01  -2.0610376960216154e-01 0.0000000000000000e+00  -2.0610284348499983e-01  1.4514183517244408e-01 0.0000000000000000e+00  1.4520477366290532e-01  2.0610543892168023e-01 0.0000000000000000e+00  -1.0794682501196856e-01  -9.2320182439998982e-03 0.0000000000000000e+00  9.2263340474278231e-03  -1.0792962968421560e-01 0.0000000000000000e+00  1.0794862616513289e-01  9.2303495602678032e-03 0.0000000000000000e+00  -9.2309527717011723e-03  1.0793303456089441e-01 0.0000000000000000e+00  -1.5645717355740746e-01  2.1385869200225730e-02 0.0000000000000000e+00  1.4144643517584032e-01  -9.0699689376422837e-02 0.0000000000000000e+00  9.0700852888899869e-02  1.4144681691164390e-01 0.0000000000000000e+00  -9.0699752488614782e-02  -1.4145063718932072e-01 0.0000000000000000e+00  -1.4142197197589626e-01  9.0698816113451930e-02 0.0000000000000000e+00  -2.1539540542485386e-01  8.7159236443306823e-02 0.0000000000000000e+00  -8.4920573132897470e-02  -2.1726582924018312e-01 0.0000000000000000e+00  1.1065693850664735e-02  5.3206692602408109e-02 0.0000000000000000e+00  1.9305262580436286e-02  1.5512527588207156e-01 0.0000000000000000e+00  -6.0789083191599320e-02  -5.0850721693986890e-02 0.0000000000000000e+00  -6.5894862157123923e-02  -2.2726354754645912e-02 0.0000000000000000e+00  1.6297608504481642e-03  1.0293883485170685e-01 0.0000000000000000e+00  9.7541912203506984e-02  -3.2799875068130468e-01 0.0000000000000000e+00  3.2802462698227935e-01  9.7511327600097175e-02 0.0000000000000000e+00  -3.2799802586566457e-01  -9.7540243447446315e-02 0.0000000000000000e+00  -9.7548420050956361e-02  3.2799489354287975e-01 0.0000000000000000e+00  -3.4230298275991958e-02  -1.0798782508412828e-01 0.0000000000000000e+00  5.3960983748106484e-02  -6.5563410372504238e-02 0.0000000000000000e+00  6.2092600158338090e-02  4.7549532304166808e-02 0.0000000000000000e+00  1.2614802678820713e-01  -8.1532440258089145e-04 0.0000000000000000e+00  1.0840109688852012e-01  -3.2032732917314433e-01 0.0000000000000000e+00  -3.2032605360106337e-01  -1.0840020774884486e-01 0.0000000000000000e+00  3.2034902745318683e-01  1.0837642643034023e-01 0.0000000000000000e+00  -1.0840560331328844e-01  3.2032488593064701e-01 0.0000000000000000e+00  -5.0662585361485948e-02  6.0465626231927035e-02 0.0000000000000000e+00  8.1203245304594454e-02  1.2808842219885308e-01 0.0000000000000000e+00  -2.6648329398738985e-01  7.8668322664192247e-01 0.0000000000000000e+00  -7.8681707987049365e-01  -2.6657278360625591e-01 0.0000000000000000e+00  2.6642820729972405e-01  -7.8660114211256404e-01 0.0000000000000000e+00  7.8669441044365118e-01  2.6649066709731906e-01 0.0000000000000000e+00  9.8357397394656917e-02  -2.0013976532957296e-02 0.0000000000000000e+00  -2.1383501645138850e-01  -3.3432794864020637e-01 0.0000000000000000e+00  3.3440228868668953e-01  -2.1417985786985733e-01 0.0000000000000000e+00  2.1405961762102041e-01  3.3462849777346643e-01 0.0000000000000000e+00  -3.3466816884478617e-01  2.1410410449018466e-01 0.0000000000000000e+00  -1.3515758580881676e-01  -1.2041304540647178e-01 0.0000000000000000e+00  1.2041829344573397e-01  -1.3517489008525896e-01 0.0000000000000000e+00  1.3515700964130631e-01  1.2041494296469242e-01 0.0000000000000000e+00  -1.2040960171271550e-01  1.3515564508654240e-01 0.0000000000000000e+00  -7.8203634865510463e-02  -1.3319364514153000e-03 0.0000000000000000e+00  -6.5331516626850383e-02  6.3267402593821728e-03 0.0000000000000000e+00  -2.6600015979104324e-01  -7.8597503642791244e-01 0.0000000000000000e+00  7.8568104033244701e-01  -2.6580375073655643e-01 0.0000000000000000e+00  2.6582203807376736e-01  7.8570838161718703e-01 0.0000000000000000e+00  -7.8566157972612571e-01  2.6579097770208476e-01 0.0000000000000000e+00  -4.5677638555709221e-04  -1.1465261554140260e-01 0.0000000000000000e+00  -1.1467216747350301e-01  4.4455470052276463e-04 0.0000000000000000e+00  1.1467868690113775e-01  -4.4814362928863316e-04 0.0000000000000000e+00  4.4779453841298222e-04  1.1465027311473264e-01 0.0000000000000000e+00  -1.9716828513239554e-02  1.1969295502579588e-01 0.0000000000000000e+00  7.6103649275369167e-03  9.7632952248670787e-02 0.0000000000000000e+00  4.9649679984976602e-03  9.4064660123189411e-02 0.0000000000000000e+00  -6.7031876671084893e-03  -5.2526444866166852e-02 0.0000000000000000e+00  1.0615671970923740e-01  -1.9063872241568969e-04 0.0000000000000000e+00  -1.9059878126230501e-04  -1.0613846794992400e-01 0.0000000000000000e+00  -1.0615549023251650e-01  1.8583182698912737e-04 0.0000000000000000e+00  1.8087090516909213e-04  1.0614285807992464e-01 0.0000000000000000e+00  -3.9389586395630666e-01  5.8908062573940108e-02 0.0000000000000000e+00  3.9781293082953867e-01  -4.8725579066765709e-02 0.0000000000000000e+00  -5.5190632158110146e-02  7.2247028524192189e-03 0.0000000000000000e+00  -1.0203430253258300e-01  8.0054225075835289e-04 0.0000000000000000e+00  5.0899998017437525e-02  3.9949048018002825e-01 0.0000000000000000e+00  -5.6580745582007208e-02  -3.9614691511115263e-01 0.0000000000000000e+00  6.8948166404025304e-02  -1.9944701280201177e-01 0.0000000000000000e+00  -1.9932362184707858e-01  -6.8775335965354983e-02 0.0000000000000000e+00  1.9939615028079127e-01  6.8907304346739987e-02 0.0000000000000000e+00  -6.8906763121540107e-02  1.9939063781259572e-01 0.0000000000000000e+00  1.1885829794730599e-01  -2.7950550598401487e-03 0.0000000000000000e+00  -2.7832125837363312e-03  -1.1884967849550229e-01 0.0000000000000000e+00  -1.1886322079199023e-01  2.8025379495549333e-03 0.0000000000000000e+00  2.7974789138580881e-03  1.1886176776440979e-01 0.0000000000000000e+00  1.3268988990576391e-01  -9.6569994025661396e-02 0.0000000000000000e+00  -9.4868604698121306e-02  -1.3203566150009358e-01 0.0000000000000000e+00  9.6944161812865373e-02  1.3267803170359332e-01 0.0000000000000000e+00  -1.3275680544327917e-01  9.7342069877018961e-02 0.0000000000000000e+00  -1.2219779917944198e-01  -1.3562403280060320e-01 0.0000000000000000e+00  1.3562020593924481e-01  -1.2219570803200618e-01 0.0000000000000000e+00  -1.3559764898377344e-01  1.2218452980006912e-01 0.0000000000000000e+00  1.2219653059385951e-01  1.3562065072192844e-01 0.0000000000000000e+00  -4.3897653055006292e-01  -5.3798018573460206e-02 0.0000000000000000e+00  4.3669292784294900e-01  5.1112395399881050e-02 0.0000000000000000e+00  8.1478837591794570e-02  1.3369333955213364e-02 0.0000000000000000e+00  -5.3167841315287213e-02  4.4132281818739399e-01 0.0000000000000000e+00  -3.4647768277002410e-02  -1.0873217029124295e-01 0.0000000000000000e+00  5.3555195208968343e-02  -4.4028089865703612e-01 0.0000000000000000e+00  1.3478410886328765e-01  2.1728655797907948e-03 0.0000000000000000e+00  1.8544627642806052e-02  -1.1789668641589694e-01 0.0000000000000000e+00  1.0055323960793459e-01  3.9271905466185808e-03 0.0000000000000000e+00  3.9261368682643391e-03  -1.0053612395591235e-01 0.0000000000000000e+00  -1.0055510250124662e-01  -3.9294646265013305e-03 0.0000000000000000e+00  -3.9313744025248828e-03  1.0054683174506154e-01 0.0000000000000000e+00  1.0459194333762838e-01  -2.2717305957742972e-02 0.0000000000000000e+00  2.1205391266243656e-02  6.9927229813634612e-02 0.0000000000000000e+00  4.3900517971827913e-01  -4.3957272173046974e-01 0.0000000000000000e+00  4.3959918473259574e-01  4.3897639066709404e-01 0.0000000000000000e+00  -4.3957230179614765e-01  -4.3900444402724148e-01 0.0000000000000000e+00  -4.3901031478048153e-01  4.3956841603105640e-01 0.0000000000000000e+00  1.4619693448976959e-01  -5.6085486202286393e-02 0.0000000000000000e+00  -1.4618220034562621e-01  5.6085458026727444e-02 0.0000000000000000e+00  -5.6121068715911583e-02  -1.4617147324177099e-01 0.0000000000000000e+00  5.6109338436262986e-02  1.4616248274665875e-01 0.0000000000000000e+00  -1.5206793294863893e-01  -8.5733214204317204e-02 0.0000000000000000e+00  -8.5728388193844249e-02  1.5206347306533557e-01 0.0000000000000000e+00  8.5732237754198845e-02  -1.5207863953864068e-01 0.0000000000000000e+00  1.5207017518008847e-01  8.5736323940150447e-02 0.0000000000000000e+00  1.4677037804492127e-01  -3.8666543525313263e-02 0.0000000000000000e+00  -9.5239241277640385e-02  8.2589856677844839e-02 0.0000000000000000e+00  8.2598322956381476e-02  9.5258640223106247e-02 0.0000000000000000e+00  9.5258409337715719e-02  -8.2597710145176778e-02 0.0000000000000000e+00  -8.2598841055255279e-02  -9.5261257439869254e-02 0.0000000000000000e+00  -6.5434048681739188e-02  -2.2349973776864879e-01 0.0000000000000000e+00  -2.2349843335724504e-01  6.5390731533139332e-02 0.0000000000000000e+00  2.2352933779334525e-01  -6.5367760453109741e-02 0.0000000000000000e+00  6.5407703448476087e-02  2.2351105518418499e-01 0.0000000000000000e+00  1.2049820048099782e-01  -3.3281458952357360e-02 0.0000000000000000e+00  -9.5010395546880941e-02  3.5232926110554462e-03 0.0000000000000000e+00  3.3525139028466724e-02  -1.1136223502712016e-01 0.0000000000000000e+00  4.8436163113929294e-02  -8.6770664928366437e-02 0.0000000000000000e+00  4.1361369198478201e-02  -3.7860355771839979e-02 0.0000000000000000e+00  1.1804073297190465e-01  -5.3572840850589646e-03 0.0000000000000000e+00  -5.3511998976037561e-03  -1.1803027067522968e-01 0.0000000000000000e+00  -1.1804783934927529e-01  5.3579073074359329e-03 0.0000000000000000e+00  5.3561167251448688e-03  1.1804534763701408e-01 0.0000000000000000e+00  -1.3474906595879935e-01  1.3357518540664642e-01 0.0000000000000000e+00  1.3474463010233459e-01  -1.3357712838805069e-01 0.0000000000000000e+00  -1.3357599143491733e-01  -1.3474372140866189e-01 0.0000000000000000e+00  1.3359490962842305e-01  1.3472051219330389e-01 0.0000000000000000e+00  8.4313847856931842e-02  -9.4250121472993054e-02 0.0000000000000000e+00  -9.4234522946830268e-02  -8.4310104656187254e-02 0.0000000000000000e+00  9.4233588586502562e-02  8.