<?xml version="1.0"?>
<VTKFile type="UnstructuredGrid"  version="0.1"  >
<UnstructuredGrid>
<Piece  NumberOfPoints="690" NumberOfCells="1302">
<Points>
<DataArray  type="Float64"  NumberOfComponents="3"  format="ascii">3.325878449210181 2.222280932078409 0  2.222280932078409 3.32587844921018 0  1.944495815568608 2.910143643058908 0  2.910143643058908 1.944495815568608 0  -2.222280932078409 3.325878449210181 0  -3.32587844921018 2.222280932078409 0  -2.910143643058908 1.944495815568608 0  -1.944495815568607 2.910143643058908 0  -3.325878449210181 -2.222280932078408 0  -2.22228093207841 -3.32587844921018 0  -1.944495815568609 -2.910143643058908 0  -2.910143643058909 -1.944495815568607 0  2.222280932078408 -3.325878449210181 0  3.32587844921018 -2.22228093207841 0  2.910143643058908 -1.944495815568609 0  1.944495815568607 -2.910143643058909 0  6 0 0  3.673940397442059e-16 6 0  -1.102182119232618e-15 -6 0  -6 7.347880794884119e-16 0  3.092041813450948 2.537573136654581 0  2.828427124746191 2.82842712474619 0  2.537573136654581 3.092041813450948 0  2.307710352850239 2.631439326176422 0  2.631439326176421 2.307710352850241 0  -2.537573136654579 3.09204181345095 0  -2.82842712474619 2.828427124746191 0  -3.092041813450948 2.537573136654581 0  -2.631439326176421 2.307710352850241 0  -2.307710352850241 2.631439326176421 0  -3.092041813450948 -2.537573136654582 0  -2.82842712474619 -2.82842712474619 0  -2.537573136654582 -3.092041813450948 0  -2.307710352850241 -2.631439326176421 0  -2.63143932617642 -2.307710352850241 0  2.537573136654581 -3.092041813450948 0  2.82842712474619 -2.82842712474619 0  3.092041813450948 -2.537573136654582 0  2.63143932617642 -2.307710352850241 0  2.307710352850241 -2.631439326176421 0  5.97950695804002 0.495476072833992 0  5.918167820416334 0.9875675416844029 0  5.816401595635983 1.472912922844793 0  5.674903450203809 1.9481968152281 0  5.494639959930346 2.410172547917815 0  5.276842507238935 2.855684358222441 0  5.022998869575172 3.28168894873456 0  4.734843056378362 3.685276276138007 0  4.41434346403879 4.063689429754445 0  4.063689429754446 4.414343464038789 0  3.685276276138008 4.734843056378361 0  3.281688948734562 5.022998869575171 0  2.85568435822244 5.276842507238936 0  2.410172547917819 5.494639959930343 0  1.948196815228102 5.674903450203808 0  1.472912922844795 5.816401595635982 0  0.9875675416844021 5.918167820416334 0  0.4954760728339964 5.97950695804002 0  0.4954760728339937 -5.97950695804002 0  0.9875675416844032 -5.918167820416334 0  1.472912922844796 -5.816401595635982 0  1.948196815228102 -5.674903450203808 0  2.410172547917818 -5.494639959930344 0  2.855684358222444 -5.276842507238933 0  3.281688948734562 -5.022998869575171 0  3.685276276138009 -4.73484305637836 0  4.063689429754447 -4.414343464038788 0  4.414343464038792 -4.063689429754445 0  4.734843056378364 -3.685276276138004 0  5.022998869575173 -3.281688948734559 0  5.276842507238936 -2.855684358222438 0  5.494639959930346 -2.410172547917814 0  5.67490345020381 -1.948196815228097 0  5.816401595635984 -1.472912922844789 0  5.918167820416335 -0.9875675416843989 0  5.97950695804002 -0.4954760728339934 0  -0.4954760728339943 5.97950695804002 0  -0.9875675416843996 5.918167820416334 0  -1.472912922844793 5.816401595635983 0  -1.9481968152281 5.674903450203809 0  -2.410172547917817 5.494639959930344 0  -2.855684358222438 5.276842507238936 0  -3.281688948734559 5.022998869575172 0  -3.685276276138006 4.734843056378362 0  -4.063689429754446 4.414343464038789 0  -4.414343464038788 4.063689429754449 0  -4.734843056378361 3.685276276138008 0  -5.022998869575171 3.281688948734562 0  -5.276842507238936 2.85568435822244 0  -5.494639959930343 2.41017254791782 0  -5.674903450203808 1.948196815228102 0  -5.816401595635982 1.472912922844795 0  -5.918167820416334 0.9875675416844023 0  -5.97950695804002 0.4954760728339969 0  -5.97950695804002 -0.4954760728339947 0  -5.918167820416334 -0.9875675416844049 0  -5.816401595635982 -1.472912922844797 0  -5.674903450203807 -1.948196815228103 0  -5.494639959930343 -2.410172547917818 0  -5.276842507238933 -2.855684358222443 0  -5.02299886957517 -3.281688948734564 0  -4.734843056378359 -3.685276276138009 0  -4.414343464038788 -4.063689429754449 0  -4.063689429754445 -4.414343464038792 0  -3.685276276138004 -4.734843056378363 0  -3.281688948734559 -5.022998869575173 0  -2.855684358222438 -5.276842507238936 0  -2.410172547917813 -5.494639959930346 0  -1.948196815228096 -5.67490345020381 0  -1.47291292284479 -5.816401595635984 0  -0.9875675416843959 -5.918167820416335 0  -0.495476072833993 -5.97950695804002 0  2.240848146171211 3.008948709507838 0  3.008948709507839 2.24084814617121 0  -2.24084814617121 3.00894870950784 0  -3.008948709507838 2.240848146171211 0  -2.240848146171211 -3.008948709507838 0  -3.008948709507839 -2.240848146171211 0  3.008948709507839 -2.240848146171211 0  2.24084814617121 -3.008948709507839 0  -2.464543356956426 1.881254992561457 0  2.464542250435746 -1.881263393902289 0  1.881289449356904 2.464538818733608 0  -1.881213905288764 -2.464401123525205 0  -0.257471824488511 -5.573752762686117 0  5.57375276268612 -0.2574718244885086 0  0.2574718244885114 5.57375276268612 0  -5.573752762686126 0.2574718244885129 0  1.508458067514407 2.719993701077515 0  1.461765778439367 2.281037610439501 0  2.719994273027871 -1.508453724938635 0  2.281037610439499 -1.461765778439364 0  -1.508445476836382 -2.719970751876116 0  -1.461765778439365 -2.281037610439501 0  -2.719994457447985 1.508452324715164 0  -2.2810376104395 1.461765778439364 0  -1.756918105971569 3.319056257095291 0  3.319056257095291 1.756918105971569 0  1.756918105971569 -3.319056257095292 0  -3.319056257095291 -1.756918105971567 0  -1.479878017433113 2.980626028124223 0  2.980626028124224 1.479878017433113 0  1.479878017433113 -2.980626028124223 0  -2.980626028124223 -1.479878017433111 0  3.383197954213211 1.324062701213575 0  1.324062701213574 -3.38319795421321 0  -1.324062701213574 3.383197954213209 0  -3.38319795421321 -1.324062701213571 0  -1.046223752830093 3.033714743745938 0  3.033722346279203 1.046201624639621 0  1.046294637968222 -3.033690389221342 0  -3.033624935952679 -1.046336593551671 0  0.8795431115831561 -3.455329568825733 0  3.455380768752159 0.8794690457471004 0  -0.8794866643659577 3.455368587534361 0  -3.455264289682411 -0.8796194948965502 0  5.344612645740302 -1.650574128192076 0  -1.650574128192076 -5.344612645740301 0  1.650574128192078 5.344612645740298 0  -5.344612645740298 1.650574128192081 0  1.096447341802431 2.557240722504696 0  1.045238228758374 2.104626352729164 0  1.156148712803134 3.003722848069612 0  2.557240817829755 -1.096446618039799 0  2.105530730917323 -1.038563818255723 0  3.003722888598975 -1.156148405080926 0  -1.096479878316655 -2.557153345423992 0  -1.038579426614925 -2.105529266181584 0  -1.156134883925814 -3.0036780713133 0  -2.557157296352636 1.096481019629784 0  -2.115557827701936 1.034428149391658 0  -3.003677716106004 1.156139640430563 0  1.827278380840577 -1.401391736268975 0  1.652290245509143 -0.9790014624739353 0  1.373808896531596 -1.341385070113424 0  1.198959485837582 -0.9192296004898357 0  1.477364231761668 -0.5565351229424695 0  1.024082827413604 -0.4969183047921986 0  1.302398102498483 -0.1342726045766635 0  0.8491205866659407 -0.07458463833765777 0  0.570784712264505 -0.4373019456306296 0  0.3957862209856982 -0.01487853925147567 0  0.1189292370561953 -0.3770518184537516 0  -0.04737281111483056 0.04909553553580585 0  -0.295025167887853 -0.3137243979840734 0  -1.401723483464745 -1.827091957872919 0  -1.849021580445801 1.404387540058853 0  1.401989033138633 1.827178210475967 0  0.316999963917325 -0.7773354314260792 0  3.813158706837979 1.168742784104726 0  1.168742784104722 -3.813158706837979 0  -1.168742784104726 3.813158706837978 0  -3.813158706837979 -1.168742784104721 0  0.7125687147741611 -3.884488983901569 0  3.884495079130907 0.7125598974127293 0  -0.7125619948673555 3.88449362898593 0  -3.884705834560464 -0.7123783923709278 0  0.2225078210480082 0.408381635678666 0  0.6826012874657325 2.320787242490352 0  2.38205114125786 -0.6926549087750308 0  -0.6755539957486749 -2.383899089724103 0  -2.385548781737548 0.6748368392276864 0  -0.2211449063814161 0.4684146421342243 0  -1.936578276355262 0.6138423559646118 0  -2.421785846146684 5.053837493390614 0  5.053837493390617 2.421785846146683 0  2.421785846146685 -5.053837493390616 0  -5.053837493390618 -2.421785846146684 0  2.590724763969583 3.479047610418479 0  2.268600445916931 3.737149394227315 0  -2.590687542378346 3.479024504097338 0  3.479047610418478 -2.590724763969584 0  3.737149394227315 -2.268600445916934 0  3.479024504097338 2.590687542378349 0  -3.479047610418478 2.590724763969583 0  -3.737149394227315 2.268600445916932 0  -2.590724763969584 -3.479047610418479 0  -2.268600445916933 -3.737149394227317 0  2.590687542378349 -3.479024504097338 0  -3.479024504097338 -2.590687542378349 0  0.04001019121698014 0.827259552388188 0  -0.425614703164204 3.522022734504161 0  -0.2514533800276133 3.952366129742403 0  3.522000709936073 0.4256638588742054 0  3.952362700671883 0.251461223070174 0  0.4219058359674309 -3.520958312092688 0  0.2508363554792805 -3.952187951826428 0  -3.520880503759853 -0.424570988417546 0  -3.952201458418147 -0.2512610528087227 0  -2.210379968513758 0.2528861747965302 0  0.5431935040978412 -4.32002928298305 0  4.320059423662184 0.5432961791360882 0  -0.5432952215380995 4.320059753483109 0  -4.320067675858157 -0.5432325665855441 0  1.127432792669877 0.2880864436019788 0  1.574217525692459 0.2333178611640472 0  -1.767145127772846 0.1892589911621698 0  -0.4071676185833575 0.8857068798212764 0  -2.034188781236058 -0.168747330705204 0  -3.969873795361075 3.970375149130908 0  3.970375149130908 3.969873795361078 0  -3.970375149130909 -3.969873795361079 0  3.969873795361075 -3.97037514913091 0  -1.200442532514168 2.625779981819305 0  -2.625935982367414 -1.200258700666845 0  2.625777374991005 1.20044227236721
[...]
<PointData  Scalars="f_20"> 
<DataArray  type="Float64"  Name="f_20"  format="ascii">-8.6255095414583327e-01  8.6130456959562529e-01  7.5355792739463923e-01  -7.5480846445985872e-01  8.6248799429049106e-01  -8.6136775496958118e-01  -7.5362122209981830e-01  7.5474548308985767e-01  -8.6248771951902314e-01  8.6136786719589420e-01  7.5362124633497041e-01  -7.5474516688315152e-01  8.6247801094986931e-01  -8.6137756794527875e-01  -7.5363093940373160e-01  7.5473540015636997e-01  0.0000000000000000e+00  0.0000000000000000e+00  0.0000000000000000e+00  0.0000000000000000e+00  -4.3366151557260768e-01  -6.2194420031163873e-04  4.3241617764968537e-01  2.5218199607717423e-01  -2.5342413799807578e-01  4.3359850369774866e-01  5.5887255605152587e-04  -4.3247932849924314e-01  -2.5224511279197614e-01  2.5336112700364583e-01  -4.3359824851023299e-01  -5.5867057733408369e-04  4.3247946548193794e-01  2.5224527472933217e-01  -2.5336086770548966e-01  4.3358852575536705e-01  5.4895989157565902e-04  -4.3248916755653471e-01  -2.5225497467675090e-01  2.5335114885113708e-01  0.0000000000000000e+00  0.0000000000000000e+00  0.0000000000000000e+00  0.0000000000000000e+00  0.0000000000000000e+00  0.0000000000000000e+00  0.0000000000000000e+00  0.0000000000000000e+00  0.0000000000000000e+00  0.0000000000000000e+00  0.0000000000000000e+00  0.0000000000000000e+00  0.0000000000000000e+00  0.0000000000000000e+00  0.0000000000000000e+00  0.0000000000000000e+00  0.0000000000000000e+00  0.0000000000000000e+00  0.0000000000000000e+00  0.0000000000000000e+00  0.0000000000000000e+00  0.0000000000000000e+00  0.0000000000000000e+00  0.0000000000000000e+00  0.0000000000000000e+00  0.0000000000000000e+00  0.0000000000000000e+00  0.0000000000000000e+00  0.0000000000000000e+00  0.0000000000000000e+00  0.0000000000000000e+00  0.0000000000000000e+00  0.0000000000000000e+00  0.0000000000000000e+00  0.0000000000000000e+00  0.0000000000000000e+00  0.0000000000000000e+00  0.0000000000000000e+00  0.0000000000000000e+00  0.0000000000000000e+00  0.0000000000000000e+00  0.0000000000000000e+00  0.0000000000000000e+00  0.0000000000000000e+00  0.0000000000000000e+00  0.0000000000000000e+00  0.0000000000000000e+00  0.0000000000000000e+00  0.0000000000000000e+00  0.0000000000000000e+00  0.0000000000000000e+00  0.0000000000000000e+00  0.0000000000000000e+00  0.0000000000000000e+00  0.0000000000000000e+00  0.0000000000000000e+00  0.0000000000000000e+00  0.0000000000000000e+00  0.0000000000000000e+00  0.0000000000000000e+00  0.0000000000000000e+00  0.0000000000000000e+00  0.0000000000000000e+00  0.0000000000000000e+00  0.0000000000000000e+00  0.0000000000000000e+00  0.0000000000000000e+00  0.0000000000000000e+00  0.0000000000000000e+00  0.0000000000000000e+00  0.0000000000000000e+00  0.0000000000000000e+00  5.9926547388163809e-01  -6.0051198351056223e-01  6.0044899376113292e-01  -5.9932866895948811e-01  5.9932877150936059e-01  -6.0044871501086639e-01  -5.9933847020647713e-01  6.0043898367646142e-01  -2.5325128995927354e-01  -2.5307551884094281e-01  2.5308391557850668e-01  2.5298904718424126e-01  4.0908468421176639e-02  -4.0902452425890030e-02  4.0909823192499778e-02  -4.0907872303401746e-02  3.2201457432150421e-01  1.7125785353281045e-01  -3.2216116730612038e-01  -1.7111036507718708e-01  3.2207850207483629e-01  1.7110028307882061e-01  -3.2219025116902961e-01  -1.7141169633356221e-01  4.9821286491654887e-01  -4.9821414497053185e-01  4.9824070485252359e-01  -4.9820743592027383e-01  3.7582599849498188e-01  -3.7574307976316268e-01  3.7589951358244394e-01  -3.7581037848547322e-01  -3.2923661210717131e-01  3.2931663236842579e-01  3.2925596000451551e-01  -3.2926323602386337e-01  2.6929600392613284e-01  -2.6932356419169973e-01  2.6948855709025094e-01  -2.6951462843907686e-01  2.5036474913734108e-01  -2.5030310279872509e-01  2.5033599389005201e-01  -2.5025949525566327e-01  -5.0361719867481960e-02  5.0363616281455408e-02  5.0363536660717322e-02  -5.0364482297583980e-02  2.1669154864091777e-01  1.3159081491950650e-01  2.8795280348043661e-01  -2.1621785891349024e-01  -1.3149660460225698e-01  -2.8911525757480327e-01  2.1621581125474812e-01  1.3161675479688223e-01  2.8880833430946379e-01  -2.1643060784741897e-01  -1.3341143013002343e-01  -2.8876785409848937e-01  -6.2970157821898881e-02  -6.4388521531450305e-02  -3.1013690824571029e-03  -2.0035470976901396e-02  -6.0693936496477904e-02  -2.5527911493445656e-02  -5.2392623424248150e-02  -2.2392602980544813e-02  -4.1406073299346301e-03  -4.8079276590265287e-03  4.0345587309507389e-03  6.3668581223763238e-05  4.3799685692407913e-04  6.2934426945097266e-02  -6.7101635972781806e-02  6.3022017585357401e-02  1.5932658414447933e-02  -2.5983988765975508e-01  2.5988838084190541e-01  2.5986309624028431e-01  -2.5982366539605883e-01  2.1252910447082571e-01  -2.1245382130475671e-01  2.1250454145973438e-01  -2.1241507665543324e-01  3.7811985475679367e-03  1.5809740353669005e-01  -1.6648942922309953e-01  1.6615776750030409e-01  -1.6629321575584613e-01  5.3964232351299702e-03  -1.0987238154670827e-01  5.6521947661846504e-02  -5.6523998042332886e-02  5.6523183809798393e-02  -5.6519266890890790e-02  3.8580368586038155e-01  4.0212765568305747e-01  3.8688940214808420e-01  -3.8586965252913258e-01  -4.0219623230626356e-01  -3.8694580200721679e-01  -3.8586084939927917e-01  -4.0218813075392335e-01  3.8586091477059531e-01  4.0218628650049060e-01  3.8688076941772742e-01  -3.8688884569669502e-01  2.1398410922676671e-02  2.1319984834397271e-01  1.8993847216133636e-01  -2.1308272995989924e-01  -1.8987944505119167e-01  2.1305126602163449e-01  1.8991096134468943e-01  -2.1302724663698455e-01  -1.8988833912801459e-01  -1.3955529478128892e-01  1.6897301158774539e-01  -1.6893385018084953e-01  1.6896974178032251e-01  -1.6893544086149900e-01  -3.7537040709417692e-02  -7.5164705492813455e-02  -9.4101782318527186e-02  1.9621799147703827e-02  -1.2117813111962027e-01  8.4671802905631483e-05  -9.2893896002051681e-05  -8.4459528161976379e-05  8.3662741375180891e-05  2.3931294175618556e-01  -2.3988610836979232e-01  -2.3978008144055032e-01  6.4530335389373264e-02  2.0474233842795292e-01  1.4586216094530202e-01  4.0236550689248740e-01  -4.0240599582313547e-01  4.0236401765454533e-01  -4.0236225008380683e-01  4.6947143216089601e-02  4.8158798349171160e-02  -4.8154356564187081e-02  -4.8152865602325477e-02  4.8157053515058057e-02  -2.0450350867177383e-01  3.1610038533109895e-03  2.3634308580002319e-01  -2.3637209430719999e-01  2.3634133555482395e-01  -2.3634032124900400e-01  -2.3586747087370943e-01  -2.3527329198881006e-01  -3.0284039460120793e-01  2.3586153811460728e-01  2.3526758798677760e-01  3.0283012131970305e-01  2.3582500254082361e-01  2.3523760242909547e-01  3.0279136294013187e-01  -2.3586223580674051e-01  -2.3526898605178362e-01  -3.0283270006282631e-01  -7.7216346686259818e-02  2.4009926471863266e-01  2.0473537138001169e-01  1.5639412743742903e-01  1.8524768020678056e-01  1.5344268966988162e-01  -1.5634269578354254e-01  -1.8521029487931792e-01  -1.5341067241658563e-01  1.5637852038707573e-01  1.8524869108158645e-01  1.5344466294947692e-01  -1.5638114155940536e-01  -1.8528601781129087e-01  -1.5345261098010227e-01  -1.9466950854044759e-01  1.9472180871251060e-01  1.9472267906308818e-01  -1.9474603530841092e-01  6.3798212477994304e-02  1.5283302416177633e-01  3.2805077144802473e-03  -1.8245487179384093e-01  4.1764379061710127e-02  -4.1758018542011992e-02  4.1764600765597661e-02  -4.1760131188035482e-02  -5.4824770499999134e-02  1.5164793472485508e-01  1.5341114484551979e-01  1.0407599090889212e-01  1.1962561040693007e-01  1.5317655702543684e-01  -1.5125121612702205e-01  1.5317247756017782e-01  -1.5125640136122370e-01  -1.5320976160642852e-01  1.5121543275024230e-01  -1.5317535193460136e-01  1.5125117996456913e-01  -1.5394303613067070e-01  4.2940591287268987e-02  -1.5784601314788552e-01  1.5786832975860082e-01  1.5787871870795345e-01  -1.5787655074798179e-01  2.0230780145589797e-02  -1.0517637687912929e-01  4.7209596467786795e-03  -1.9198878775500641e-01  1.9198609226995927e-01  1.9197151667649021e-01  -1.9198772469775063e-01  1.9789069787433080e-02  2.1363246968818092e-01  -2.1366714407923248e-01  2.1386350501598203e-01  -2.1380826152577048e-01  1.8759005097138304e-01  1.8844994371243989e-01  2.3504498747728436e-01  -2.3506164300546695e-01  -2.3503917725317280e-01  2.3504800643092608e-01  6.0732709313409461e-02  1.1305291482062838e-01  1.1305145087041600e-01  -1.1307217714880702e-01  -1.1305120257376676e-01  1.1249008460878744e-01  -1.1251624409088443e-01  -1.1251310429593611e-01  1.1251286342085254e-01  1.4188464044813245e-01  1.4950420405973236e-01  -1.4742035829890335e-01  -3.5419205484810430e-02  -2.0624082460910442e-01  -1.5299867737136549e-01  -1.8792621340414389e-01  -4.8101191580182373e-01  4.8098878412950641e-01  -4.8101927129794886e-01  4.8079450204589130e-01  -4.2418033231982490e-02  3.0830700022576922e-02  1.3087682953475427e-01  -1.3089133489148894e-01  -1.3089250028347263e-01  1.3089039665286514e-01  -2.4588338095199319e-01  2.4609784682933586e-01  2.4588552721098381e-01  -2.4587731689973744e-01  3.0782976730135947e-01  1.9442643269082754e-01  3.0781933981457682e-01  1.9442008344681430e-01  -3.0782972648738599e-01  -1.9442366979712636e-01  -3.0780979746425696e-01  -1.9441030879638874e-01  1.2463928758475559e-01  1.3795165344226995e-01  1.2463557492979395e-01  1.3794670306936263e-01  -1.2461155257041923e-01  -1.3792648822954537e-01  -1.2462394888586970e-01  -1.3792768129644484e-01  -2.7053267711069934e-01  -2.2248435183838430e-01  2.2248054458028063e-01  2.2248226267817006e-01  -2.2248399801578944e-01  2.5139703375843193e-02  5.2245524454701243e-02  6.5006462128921708e-02  -2.4289151999260471e-02  -2.4646884243859978e-02  -5.2899547859156390e-02  -1.6088159402249957e-01  -1.8995006795805555e-01  1.5521731198902333e-01  1.8809180806287654e-01  1.1342975583890412e-01  -1.1341240942421196e-01  1.1343418176481715e-01  -1.1343322568147771e-01  2.3796519030807057e-02  1.1630214487325406e-01  -2.2450444838837721e-02  -1.5920148212554264e-01  1.5920132747510476e-01  1.5920322639402765e-01  -1.5920536206577113e-01  -1.0757929791725153e-01  1.0758998272741774e-01  1.0759469316505328e-01  -1.0759310442870752e-01  1.1948176830125529e-01  1.1650255808751869e-02  7.1227031054271070e-02  2.2854015560441712e-01  1.4717373534585765e-01  -2.2851791304753116e-01  -1.4716166299967887e-01  2.2852672372936944e-01  1.4716744190849301e-01  -2.2850690920707262e-01  -1.4715479272631157e-01  6.5682329548506266e-02  6.5679749073416629e-02  -6.5704615435977803e-02  -6.5681401530468572e-02  -6.6974585919743770e-02  6.6950686760414393e-02  -6.6977879432005880e-02  6.6974678853944675e-02  2.7051628548423312e-01  2.7050789502941219e-01  -2.7060017498355848e-01  -7.0573414317512351e-02  8.2351867685058047e-02  6.8980933865411015e-02  6.8983603744673078e-02  -6.8982075928616188e-02  -6.8972001194446159e-02  -3.1380439322132481e-01  3.1377998858584627e-01  -3.1377895008350637e-01  3.1374952897448183e-01  -1.5139967060202972e-01  -1.9382263618750888e-04  1.6226802305337532e-04  1.9429211021168590e-04  -1.9818816408609093e-04  3.3702290369237858e-02  5.8529567854827845e-02  -3.3713028363659525e-02  -5.8537906095152782e-02  3.3701213002185648e-02  5.8529307111140773e-02  -3.3701653052383179e-02  -5.8528302747366687e-02  -3.6460405987991801e-02  -6.1007646235017705e-02  -3.6458823670875627e-02  -6.1006245833655035e-02  3.6446862139098736e-02  6.0995137613621131e-02  3.6458846423333330e-02  6.1006033003246002e-02  -2.9860536413579001e-02  7.0222185669711182e-02  -1.3285961448585384e-01  1.3286016463223679e-01  -1.3290783610645673e-01  1.3285311058946467e-01  -1.0349550763815940e-01  -1.3125292660942472e-01  1.3120467027503618e-01  1.3125313001349179e-01  -1.3126021042556232e-01  -2.0247738175274690e-01  2.0237626032743330e-01  2.0852114869907490e-01  2.0254098892689013e-01  -2.0247410723548620e-01  -2.0405388089683368e-01  -2.0785942422833317e-01  5.3081291965984267e-02  -5.2311651179993736e-03  -7.1975650087306137e-02  -5.4452229948856387e-02  -1.0879308724284639e-01  -9.3149863425353960e-02  -5.2861416883619027e-02  -3.2884212490214512e-03  5.3341144048783415e-02  1.0923970956167953e-01  1.3773716169144762e-01  1.8018820149474585e-01  -1.0190618069368457e-02  -8.8629881688658367e-03  -2.1730731716586812e-01  -1.6262364131096152e-01  4.4566458029832107e-03  -2.2123518859485714e-01  2.1775253773391334e-01  -2.2290769485318698e-01  2.2123527508696969e-01  -2.2026992798316097e-01  2.0859060337058055e-01  2.2136743291646910e-01  -2.0931529601345875e-01  2.0994483890983262e-01  3.5033827706375080e-02  -1.4355209420768614e-01  1.1794920500938874e-01  7.6260415966597217e-02  -1.1794759999818498e-01  -7.6255294916928298e-02  1.1795136782862291e-01  7.6260719062435228e-02  -1.1792490579436551e-01  -7.6246402705219693e-02  3.7756758707691990e-02  2.0294943725961309e-01  1.9334629357555927e-01  -1.9330741564437190e-01  1.9333355217101619e-01  -1.9329509274933529e-01  9.3124876904284573e-02  -2.4637421416762251e-01  2.4582452603827937e-01  -2.4488089012486688e-01  2.4429271286733409e-01  -2.0337777687283756e-01  2.0348900952136439e-01  -3.4971007927267726e-02  1.0537393060569658e-01  -1.0537329901600288e-01  1.0536943587100968e-01  -1.0537518238688590e-01  1.8774812244621960e-02  -1.1237468451823869e-01  1.1238141536260807e-01  1.1238485769229048e-01  -1.1238214719347936e-01  -5.6280875985627921e-02  5.6280457391927677e-02  5.6275674128312157e-02  -5.6280949507226931e-02  1.3031486635073070e-01  -1.3032175870393431e-01  1.3031728361534567e-01  -1.3030990482586641e-01  -2.1441735499918627e-01  -2.1440267355993342e-01  2.1441390059652263e-01  2.1445930345180575e-01  -1.3351487187348654e-01  -1.3353155141536385e-01  1.3351839082552075e-01  1.3351794419944923e-01  -1.3502768279595431e-01  1.3500508474370573e-01  1.3502453781271417e-01  -1.3502516650175914e-01  -1.5648466056059240e-01  -4.7321137728818116e-02  -1.0388171150362049e-01  4.7326389253373277e-02  1.0389118673427913e-01  4.7327690974404583e-02  1.0389514129823013e-01  -4.7321501069537836e-02  -1.0387988649071055e-01  7.7175975522973880e-02  -4.3105494699108418e-02  4.3108991266281614e-02  4.3110279850978005e-02  -4.3109896703485376e-02  3.4680144784748201e-01  -3.4677167506252882e-01  3.4677513789661968e-01  -3.4676344185436858e-01  1.0799622002090686e-01  -3.2146820564204948e-01  3.2175940718236440e-01  3.2062850595297182e-01  -3.2197909078829073e-01  -1.2081611276266796e-01  8.9508356352008211e-02  8.9506203706917919e-02  -8.9492600922911447e-02  -8.9496362616299424e-02  4.0637351090789225e-02  8.5387425245325738e-03  8.4960038992822305e-03  -8.3931652705351960e-03  -8.5569109898995105e-03  -5.7534751280359758e-02  5.7526276938414868e-02  -5.7534006406894704e-02  5.7533669964151941e-02  -6.5571636087208604e-02  -6.5564384384148890e-03  -7.0142548590873197e-02  3.2706726701927376e-02  -3.2701288095615136e-02  3.2706989227950720e-02  -3.2704532749948119e-02  1.6019929989043225e-01  5.8926560470948644e-02  -5.8931513931060865e-02  5.8927112591131224e-02  -5.8924710324873439e-02  -1.3912202478254154e-01  7.8917318955535137e-02  4.2360741412873160e-02  -4.2363128249579669e-02  -4.2362183609800007e-02  4.2362607999195480e-02  -1.4597907162632453e-02  -4.2113467263229535e-03  3.5677501947245671e-02  -1.9183261657872896e-01  5.2093811793746565e-02  -5.2093284986530687e-02  5.2095455657993846e-02  -5.2090260700675788e-02  -2.0329191434922976e-02  7.9984986203500599e-02  -1.5923994495379362e-01  -1.5922735305565849e-01  1.5923624108600931e-01  1.5924562615707979e-01  -5.9926105328293976e-02  1.5947434657416609e-01  -1.5945173268994864e-01  1.5946628442891364e-01  -1.5944645552482783e-01  -1.1034338198296402e-01  1.1014404794622577e-01  1.0735456669099526e-01  -1.1081881801468407e-01  8.3471648395767817e-02  -8.3456926970320422e-02  8.3472779494891680e-02  -8.3470587443716007e-02  1.6621907589751417e-01  -1.0345089995705502e-01  1.0345575444050652e-01  1.0345736276032549e-01  -1.0345780028417495e-01  5.3124381732565689e-03  4.6075088038675360e-01  4.6076233167649333e-01  -4.6077251557175480e-01  -4.6074497454169544e-01  -4.4041610214885069e-01  4.4040002448828669e-01  -4.4040924230166506e-01  4.4030762362014120e-01  -4.0810886359725090e-01  4.0800933238053422e-01  4.0744537465910347e-01  -4.0798861136952957e-01  2.9074502098612987e-01  2.9216624779806055e-01  -2.9225559047958816e-01  -2.9135456410532862e-01  -1.8976921830199681e-01  -1.8304425380462530e-01  1.8921198404216008e-01  6.1895481186161852e-02  3.8188259791289168e-02  2.6484029444684778e-02  -1.1155139022988082e-03  1.0976801117193536e-03  1.1158985115502335e-03  -1.1177979673114037e-03  2.7665545933185803e-02  -2.7662180611100911e-02  2.7666597664956570e-02  -2.7665868813772296e-02  1.1580501427915864e-01  9.4718829577442362e-02  -9.4715397113828911e-02  9.4722304673174690e-02  -9.4711045867173604e-02  -3.0921328156782450e-02  </DataArray> 
</PointData> 
</Piece>
</UnstructuredGrid>
</VTKFile>